###############################################################
#                                                             #
#                                                             # 
# THIS FILE HAD BEEN MODIFIED IN ORDER TO REDUCE SIZE.        #
# IT WILL NOT WORK WITH THE PYTHON SCRIPTS.                   # 
# JUST AN EXAMPLE                                             #
#                                                             #
#                                                             #
###############################################################



     Program PROJWFC v.6.4 starts on 25Aug2020 at 19: 9:22 

     This program is part of the open-source Quantum ESPRESSO suite
     for quantum simulation of materials; please cite
         "P. Giannozzi et al., J. Phys.:Condens. Matter 21 395502 (2009);
         "P. Giannozzi et al., J. Phys.:Condens. Matter 29 465901 (2017);
          URL http://www.quantum-espresso.org", 
     in publications or presentations arising from this work. More details at
     http://www.quantum-espresso.org/quote

     Parallel version (MPI), running on    48 processors

     MPI processes distributed on     1 nodes
     R & G space division:  proc/nbgrp/npool/nimage =      48

     Reading data from directory:
     ./GS.save/

     IMPORTANT: XC functional enforced from input :
     Exchange-correlation      = PBE ( 1  4  3  4 0 0)
     Using LIBXC version       =    4   2   3
     Any further DFT definition will be discarded
     Please, verify this is what you really want

               file Ca.pbe-spn-kjpaw_psl.1.0.0.UPF: wavefunction(s)  3S renormalized
               file N.pbe-n-kjpaw_psl.1.0.0.UPF: wavefunction(s)  2S renormalized
               file Mo.pbe-spn-kjpaw_psl.1.0.0.UPF: wavefunction(s)  4S 4D renormalized
               file S.pbe-n-kjpaw_psl.1.0.0.UPF: wavefunction(s)  3S 3P renormalized

     Parallelization info
     --------------------
     sticks:   dense  smooth     PW     G-vecs:    dense   smooth      PW
     Min         165      99     26                65741    30555    4184
     Max         167     100     27                65753    30588    4215
     Sum        7951    4753   1273              3155893  1466945  201381


     negative rho (up, down):  9.619E-05 0.000E+00

     Gaussian broadening (read from input): ngauss,degauss=   0    0.001000


     Calling pprojwave .... 

  Problem Sizes 
  natomwfc =          192
  nbnd     =          190
  nkstot   =          211
  npwx     =         3823
  nkb      =          480


     Atomic states used for projection
     (read from pseudopotential files):

     state #   1: atom   1 (Ca ), wfc  1 (l=0 m= 1)
     state #   2: atom   1 (Ca ), wfc  2 (l=0 m= 1)
     state #   3: atom   1 (Ca ), wfc  3 (l=1 m= 1)
     state #   4: atom   1 (Ca ), wfc  3 (l=1 m= 2)
     state #   5: atom   1 (Ca ), wfc  3 (l=1 m= 3)
     state #   6: atom   1 (Ca ), wfc  4 (l=1 m= 1)
     state #   7: atom   1 (Ca ), wfc  4 (l=1 m= 2)
     state #   8: atom   1 (Ca ), wfc  4 (l=1 m= 3)
     state #   9: atom   2 (Ca ), wfc  1 (l=0 m= 1)
     state #  10: atom   2 (Ca ), wfc  2 (l=0 m= 1)
     state #  11: atom   2 (Ca ), wfc  3 (l=1 m= 1)
     state #  12: atom   2 (Ca ), wfc  3 (l=1 m= 2)
     state #  13: atom   2 (Ca ), wfc  3 (l=1 m= 3)
     state #  14: atom   2 (Ca ), wfc  4 (l=1 m= 1)
     state #  15: atom   2 (Ca ), wfc  4 (l=1 m= 2)
     state #  16: atom   2 (Ca ), wfc  4 (l=1 m= 3)
     state #  17: atom   3 (Ca ), wfc  1 (l=0 m= 1)
     state #  18: atom   3 (Ca ), wfc  2 (l=0 m= 1)
     state #  19: atom   3 (Ca ), wfc  3 (l=1 m= 1)
     state #  20: atom   3 (Ca ), wfc  3 (l=1 m= 2)
     state #  21: atom   3 (Ca ), wfc  3 (l=1 m= 3)
     state #  22: atom   3 (Ca ), wfc  4 (l=1 m= 1)
     state #  23: atom   3 (Ca ), wfc  4 (l=1 m= 2)
     state #  24: atom   3 (Ca ), wfc  4 (l=1 m= 3)
     state #  25: atom   4 (Ca ), wfc  1 (l=0 m= 1)
     state #  26: atom   4 (Ca ), wfc  2 (l=0 m= 1)
     state #  27: atom   4 (Ca ), wfc  3 (l=1 m= 1)
     state #  28: atom   4 (Ca ), wfc  3 (l=1 m= 2)
     state #  29: atom   4 (Ca ), wfc  3 (l=1 m= 3)
     state #  30: atom   4 (Ca ), wfc  4 (l=1 m= 1)
     state #  31: atom   4 (Ca ), wfc  4 (l=1 m= 2)
     state #  32: atom   4 (Ca ), wfc  4 (l=1 m= 3)
     state #  33: atom   5 (Ca ), wfc  1 (l=0 m= 1)
     state #  34: atom   5 (Ca ), wfc  2 (l=0 m= 1)
     state #  35: atom   5 (Ca ), wfc  3 (l=1 m= 1)
     state #  36: atom   5 (Ca ), wfc  3 (l=1 m= 2)
     state #  37: atom   5 (Ca ), wfc  3 (l=1 m= 3)
     state #  38: atom   5 (Ca ), wfc  4 (l=1 m= 1)
     state #  39: atom   5 (Ca ), wfc  4 (l=1 m= 2)
     state #  40: atom   5 (Ca ), wfc  4 (l=1 m= 3)
     state #  41: atom   6 (Ca ), wfc  1 (l=0 m= 1)
     state #  42: atom   6 (Ca ), wfc  2 (l=0 m= 1)
     state #  43: atom   6 (Ca ), wfc  3 (l=1 m= 1)
     state #  44: atom   6 (Ca ), wfc  3 (l=1 m= 2)
     state #  45: atom   6 (Ca ), wfc  3 (l=1 m= 3)
     state #  46: atom   6 (Ca ), wfc  4 (l=1 m= 1)
     state #  47: atom   6 (Ca ), wfc  4 (l=1 m= 2)
     state #  48: atom   6 (Ca ), wfc  4 (l=1 m= 3)
     state #  49: atom   7 (N  ), wfc  1 (l=0 m= 1)
     state #  50: atom   7 (N  ), wfc  2 (l=1 m= 1)
     state #  51: atom   7 (N  ), wfc  2 (l=1 m= 2)
     state #  52: atom   7 (N  ), wfc  2 (l=1 m= 3)
     state #  53: atom   8 (N  ), wfc  1 (l=0 m= 1)
     state #  54: atom   8 (N  ), wfc  2 (l=1 m= 1)
     state #  55: atom   8 (N  ), wfc  2 (l=1 m= 2)
     state #  56: atom   8 (N  ), wfc  2 (l=1 m= 3)
     state #  57: atom   9 (N  ), wfc  1 (l=0 m= 1)
     state #  58: atom   9 (N  ), wfc  2 (l=1 m= 1)
     state #  59: atom   9 (N  ), wfc  2 (l=1 m= 2)
     state #  60: atom   9 (N  ), wfc  2 (l=1 m= 3)
     state #  61: atom  10 (Ca ), wfc  1 (l=0 m= 1)
     state #  62: atom  10 (Ca ), wfc  2 (l=0 m= 1)
     state #  63: atom  10 (Ca ), wfc  3 (l=1 m= 1)
     state #  64: atom  10 (Ca ), wfc  3 (l=1 m= 2)
     state #  65: atom  10 (Ca ), wfc  3 (l=1 m= 3)
     state #  66: atom  10 (Ca ), wfc  4 (l=1 m= 1)
     state #  67: atom  10 (Ca ), wfc  4 (l=1 m= 2)
     state #  68: atom  10 (Ca ), wfc  4 (l=1 m= 3)
     state #  69: atom  11 (Ca ), wfc  1 (l=0 m= 1)
     state #  70: atom  11 (Ca ), wfc  2 (l=0 m= 1)
     state #  71: atom  11 (Ca ), wfc  3 (l=1 m= 1)
     state #  72: atom  11 (Ca ), wfc  3 (l=1 m= 2)
     state #  73: atom  11 (Ca ), wfc  3 (l=1 m= 3)
     state #  74: atom  11 (Ca ), wfc  4 (l=1 m= 1)
     state #  75: atom  11 (Ca ), wfc  4 (l=1 m= 2)
     state #  76: atom  11 (Ca ), wfc  4 (l=1 m= 3)
     state #  77: atom  12 (Ca ), wfc  1 (l=0 m= 1)
     state #  78: atom  12 (Ca ), wfc  2 (l=0 m= 1)
     state #  79: atom  12 (Ca ), wfc  3 (l=1 m= 1)
     state #  80: atom  12 (Ca ), wfc  3 (l=1 m= 2)
     state #  81: atom  12 (Ca ), wfc  3 (l=1 m= 3)
     state #  82: atom  12 (Ca ), wfc  4 (l=1 m= 1)
     state #  83: atom  12 (Ca ), wfc  4 (l=1 m= 2)
     state #  84: atom  12 (Ca ), wfc  4 (l=1 m= 3)
     state #  85: atom  13 (Ca ), wfc  1 (l=0 m= 1)
     state #  86: atom  13 (Ca ), wfc  2 (l=0 m= 1)
     state #  87: atom  13 (Ca ), wfc  3 (l=1 m= 1)
     state #  88: atom  13 (Ca ), wfc  3 (l=1 m= 2)
     state #  89: atom  13 (Ca ), wfc  3 (l=1 m= 3)
     state #  90: atom  13 (Ca ), wfc  4 (l=1 m= 1)
     state #  91: atom  13 (Ca ), wfc  4 (l=1 m= 2)
     state #  92: atom  13 (Ca ), wfc  4 (l=1 m= 3)
     state #  93: atom  14 (Ca ), wfc  1 (l=0 m= 1)
     state #  94: atom  14 (Ca ), wfc  2 (l=0 m= 1)
     state #  95: atom  14 (Ca ), wfc  3 (l=1 m= 1)
     state #  96: atom  14 (Ca ), wfc  3 (l=1 m= 2)
     state #  97: atom  14 (Ca ), wfc  3 (l=1 m= 3)
     state #  98: atom  14 (Ca ), wfc  4 (l=1 m= 1)
     state #  99: atom  14 (Ca ), wfc  4 (l=1 m= 2)
     state # 100: atom  14 (Ca ), wfc  4 (l=1 m= 3)
     state # 101: atom  15 (Ca ), wfc  1 (l=0 m= 1)
     state # 102: atom  15 (Ca ), wfc  2 (l=0 m= 1)
     state # 103: atom  15 (Ca ), wfc  3 (l=1 m= 1)
     state # 104: atom  15 (Ca ), wfc  3 (l=1 m= 2)
     state # 105: atom  15 (Ca ), wfc  3 (l=1 m= 3)
     state # 106: atom  15 (Ca ), wfc  4 (l=1 m= 1)
     state # 107: atom  15 (Ca ), wfc  4 (l=1 m= 2)
     state # 108: atom  15 (Ca ), wfc  4 (l=1 m= 3)
     state # 109: atom  16 (N  ), wfc  1 (l=0 m= 1)
     state # 110: atom  16 (N  ), wfc  2 (l=1 m= 1)
     state # 111: atom  16 (N  ), wfc  2 (l=1 m= 2)
     state # 112: atom  16 (N  ), wfc  2 (l=1 m= 3)
     state # 113: atom  17 (N  ), wfc  1 (l=0 m= 1)
     state # 114: atom  17 (N  ), wfc  2 (l=1 m= 1)
     state # 115: atom  17 (N  ), wfc  2 (l=1 m= 2)
     state # 116: atom  17 (N  ), wfc  2 (l=1 m= 3)
     state # 117: atom  18 (N  ), wfc  1 (l=0 m= 1)
     state # 118: atom  18 (N  ), wfc  2 (l=1 m= 1)
     state # 119: atom  18 (N  ), wfc  2 (l=1 m= 2)
     state # 120: atom  18 (N  ), wfc  2 (l=1 m= 3)
     state # 121: atom  19 (Mo ), wfc  1 (l=0 m= 1)
     state # 122: atom  19 (Mo ), wfc  2 (l=0 m= 1)
     state # 123: atom  19 (Mo ), wfc  3 (l=1 m= 1)
     state # 124: atom  19 (Mo ), wfc  3 (l=1 m= 2)
     state # 125: atom  19 (Mo ), wfc  3 (l=1 m= 3)
     state # 126: atom  19 (Mo ), wfc  4 (l=2 m= 1)
     state # 127: atom  19 (Mo ), wfc  4 (l=2 m= 2)
     state # 128: atom  19 (Mo ), wfc  4 (l=2 m= 3)
     state # 129: atom  19 (Mo ), wfc  4 (l=2 m= 4)
     state # 130: atom  19 (Mo ), wfc  4 (l=2 m= 5)
     state # 131: atom  20 (S  ), wfc  1 (l=0 m= 1)
     state # 132: atom  20 (S  ), wfc  2 (l=1 m= 1)
     state # 133: atom  20 (S  ), wfc  2 (l=1 m= 2)
     state # 134: atom  20 (S  ), wfc  2 (l=1 m= 3)
     state # 135: atom  21 (S  ), wfc  1 (l=0 m= 1)
     state # 136: atom  21 (S  ), wfc  2 (l=1 m= 1)
     state # 137: atom  21 (S  ), wfc  2 (l=1 m= 2)
     state # 138: atom  21 (S  ), wfc  2 (l=1 m= 3)
     state # 139: atom  22 (Mo ), wfc  1 (l=0 m= 1)
     state # 140: atom  22 (Mo ), wfc  2 (l=0 m= 1)
     state # 141: atom  22 (Mo ), wfc  3 (l=1 m= 1)
     state # 142: atom  22 (Mo ), wfc  3 (l=1 m= 2)
     state # 143: atom  22 (Mo ), wfc  3 (l=1 m= 3)
     state # 144: atom  22 (Mo ), wfc  4 (l=2 m= 1)
     state # 145: atom  22 (Mo ), wfc  4 (l=2 m= 2)
     state # 146: atom  22 (Mo ), wfc  4 (l=2 m= 3)
     state # 147: atom  22 (Mo ), wfc  4 (l=2 m= 4)
     state # 148: atom  22 (Mo ), wfc  4 (l=2 m= 5)
     state # 149: atom  23 (S  ), wfc  1 (l=0 m= 1)
     state # 150: atom  23 (S  ), wfc  2 (l=1 m= 1)
     state # 151: atom  23 (S  ), wfc  2 (l=1 m= 2)
     state # 152: atom  23 (S  ), wfc  2 (l=1 m= 3)
     state # 153: atom  24 (S  ), wfc  1 (l=0 m= 1)
     state # 154: atom  24 (S  ), wfc  2 (l=1 m= 1)
     state # 155: atom  24 (S  ), wfc  2 (l=1 m= 2)
     state # 156: atom  24 (S  ), wfc  2 (l=1 m= 3)
     state # 157: atom  25 (Mo ), wfc  1 (l=0 m= 1)
     state # 158: atom  25 (Mo ), wfc  2 (l=0 m= 1)
     state # 159: atom  25 (Mo ), wfc  3 (l=1 m= 1)
     state # 160: atom  25 (Mo ), wfc  3 (l=1 m= 2)
     state # 161: atom  25 (Mo ), wfc  3 (l=1 m= 3)
     state # 162: atom  25 (Mo ), wfc  4 (l=2 m= 1)
     state # 163: atom  25 (Mo ), wfc  4 (l=2 m= 2)
     state # 164: atom  25 (Mo ), wfc  4 (l=2 m= 3)
     state # 165: atom  25 (Mo ), wfc  4 (l=2 m= 4)
     state # 166: atom  25 (Mo ), wfc  4 (l=2 m= 5)
     state # 167: atom  26 (S  ), wfc  1 (l=0 m= 1)
     state # 168: atom  26 (S  ), wfc  2 (l=1 m= 1)
     state # 169: atom  26 (S  ), wfc  2 (l=1 m= 2)
     state # 170: atom  26 (S  ), wfc  2 (l=1 m= 3)
     state # 171: atom  27 (S  ), wfc  1 (l=0 m= 1)
     state # 172: atom  27 (S  ), wfc  2 (l=1 m= 1)
     state # 173: atom  27 (S  ), wfc  2 (l=1 m= 2)
     state # 174: atom  27 (S  ), wfc  2 (l=1 m= 3)
     state # 175: atom  28 (Mo ), wfc  1 (l=0 m= 1)
     state # 176: atom  28 (Mo ), wfc  2 (l=0 m= 1)
     state # 177: atom  28 (Mo ), wfc  3 (l=1 m= 1)
     state # 178: atom  28 (Mo ), wfc  3 (l=1 m= 2)
     state # 179: atom  28 (Mo ), wfc  3 (l=1 m= 3)
     state # 180: atom  28 (Mo ), wfc  4 (l=2 m= 1)
     state # 181: atom  28 (Mo ), wfc  4 (l=2 m= 2)
     state # 182: atom  28 (Mo ), wfc  4 (l=2 m= 3)
     state # 183: atom  28 (Mo ), wfc  4 (l=2 m= 4)
     state # 184: atom  28 (Mo ), wfc  4 (l=2 m= 5)
     state # 185: atom  29 (S  ), wfc  1 (l=0 m= 1)
     state # 186: atom  29 (S  ), wfc  2 (l=1 m= 1)
     state # 187: atom  29 (S  ), wfc  2 (l=1 m= 2)
     state # 188: atom  29 (S  ), wfc  2 (l=1 m= 3)
     state # 189: atom  30 (S  ), wfc  1 (l=0 m= 1)
     state # 190: atom  30 (S  ), wfc  2 (l=1 m= 1)
     state # 191: atom  30 (S  ), wfc  2 (l=1 m= 2)
     state # 192: atom  30 (S  ), wfc  2 (l=1 m= 3)

 k =   0.0000000000  0.0000000000  0.0000000000
     e =   -59.68690 eV
     psi = 0.946*[# 121]+0.005*[# 139]+0.005*[# 157]+0.005*[# 175]+0.003*[# 140]+
          +0.003*[# 158]+0.003*[# 176]+0.002*[# 122]+0.002*[# 136]+0.002*[# 154]+
          +0.002*[# 170]+0.002*[# 172]+0.002*[# 174]+0.001*[# 132]+0.001*[# 133]+
          +0.001*[# 137]+0.001*[# 150]+0.001*[# 151]+0.001*[# 155]+0.001*[# 168]+
    |psi|^2 = 1.000
     e =   -59.55273 eV
     psi = 0.317*[# 157]+0.314*[# 139]+0.313*[# 175]+0.015*[# 121]+0.010*[# 122]+
          +0.004*[# 190]+0.004*[# 186]+0.002*[#   6]+0.002*[#  30]+0.002*[#  46]+
          +0.001*[# 136]+0.001*[# 154]+0.001*[# 172]+
    |psi|^2 = 1.000
     e =   -59.51181 eV
     psi = 0.630*[# 157]+0.236*[# 139]+0.097*[# 175]+0.009*[# 158]+0.003*[# 140]+
          +0.002*[# 138]+0.002*[# 134]+0.002*[# 169]+0.002*[# 173]+0.002*[# 187]+
          +0.001*[# 176]+0.001*[# 191]+0.001*[# 183]+
    |psi|^2 = 1.000
     e =   -59.51164 eV
     psi = 0.547*[# 175]+0.406*[# 139]+0.010*[# 157]+0.008*[# 176]+0.006*[# 140]+
          +0.002*[# 152]+0.002*[# 156]+0.002*[# 188]+0.001*[# 192]+0.001*[# 165]+
          +0.001*[# 173]+0.001*[# 169]+
    |psi|^2 = 1.000
     e =   -38.30723 eV
     psi = 0.260*[#  77]+0.258*[#  69]+0.249*[#  93]+0.049*[# 101]+0.049*[#  85]+
          +0.049*[#  61]+0.010*[#  66]+0.010*[#  90]+0.010*[# 106]+0.007*[#  62]+
          +0.007*[#  86]+0.007*[# 102]+0.006*[#  22]+0.005*[#  14]+0.005*[#  38]+
          +0.003*[#  74]+0.003*[#  82]+0.003*[#  98]+0.002*[#  94]+0.002*[#  70]+
          +0.002*[#  78]+
    |psi|^2 = 1.000
     e =   -38.26256 eV
     psi = 0.516*[#  77]+0.437*[#  69]+0.012*[#  78]+0.010*[#  70]+0.004*[#  92]+
          +0.004*[#  93]+0.003*[#  67]+0.003*[# 107]+0.002*[#  24]+0.001*[#  15]+
          +0.001*[# 116]+0.001*[#  39]+0.001*[# 108]+0.001*[# 119]+0.001*[# 111]+
    |psi|^2 = 1.000
     e =   -38.26196 eV
     psi = 0.640*[#  93]+0.199*[#  69]+0.118*[#  77]+0.014*[#  94]+0.005*[#  70]+
          +0.004*[#  91]+0.003*[#  68]+0.003*[#  78]+0.003*[# 108]+0.002*[#  23]+
          +0.001*[#  16]+0.001*[# 115]+0.001*[#  40]+0.001*[# 107]+0.001*[# 120]+
          +0.001*[# 112]+
    |psi|^2 = 1.000
     e =   -38.19646 eV
     psi = 0.274*[# 101]+0.262*[#  85]+0.235*[#  61]+0.051*[#  93]+0.049*[#  69]+
          +0.049*[#  77]+0.016*[#  74]+0.016*[#  82]+0.016*[#  98]+0.004*[#  70]+
          +0.004*[#  78]+0.004*[#  94]+0.004*[#  66]+0.004*[#  90]+0.004*[# 106]+
          +0.002*[# 110]+0.002*[# 114]+0.002*[# 118]+
    |psi|^2 = 1.000
     e =   -38.18555 eV
     psi = 0.537*[# 101]+0.410*[#  85]+0.012*[#  61]+0.011*[# 102]+0.008*[#  86]+
          +0.004*[#  84]+0.004*[#  75]+0.003*[#  99]+0.002*[# 120]+0.002*[# 111]+
          +0.002*[# 100]+0.002*[# 115]+
    |psi|^2 = 1.000
     e =   -38.18505 eV
     psi = 0.649*[#  61]+0.224*[#  85]+0.085*[# 101]+0.013*[#  62]+0.005*[#  86]+
          +0.004*[#  83]+0.004*[#  76]+0.003*[# 100]+0.002*[# 119]+0.002*[# 112]+
          +0.002*[# 102]+0.002*[#  99]+0.002*[# 116]+
    |psi|^2 = 1.000
     e =   -37.75242 eV
     psi = 0.859*[#  17]+0.019*[#  25]+0.018*[#  41]+0.018*[#   1]+0.008*[#   9]+
          +0.007*[#  33]+0.007*[#   6]+0.007*[#  30]+0.007*[#  46]+0.005*[#  10]+
          +0.005*[#  34]+0.004*[#   2]+0.004*[#  26]+0.004*[#  42]+0.003*[#  18]+
          +0.003*[#  74]+0.003*[#  82]+0.003*[#  98]+0.002*[#  31]+0.002*[#   8]+
          +0.002*[#  48]+0.001*[#  14]+0.001*[#  38]+
    |psi|^2 = 1.000
     e =   -37.64438 eV
     psi = 0.190*[#  25]+0.187*[#  41]+0.181*[#   1]+0.159*[#   9]+0.130*[#  33]+
          +0.079*[#  17]+0.018*[#  18]+0.013*[#  22]+0.011*[#  14]+0.011*[#  38]+
          +0.002*[#   2]+0.002*[#  26]+0.002*[#  42]+0.001*[#  34]+0.001*[#  31]+
    |psi|^2 = 1.000
     e =   -37.60020 eV
     psi = 0.573*[#  25]+0.359*[#  41]+0.025*[#   1]+0.013*[#  26]+0.008*[#  42]+
          +0.004*[#  23]+0.004*[#  16]+0.002*[#  39]+0.002*[#  56]+0.002*[#  40]+
          +0.002*[#  59]+0.001*[#  51]+
    |psi|^2 = 1.000
     e =   -37.59954 eV
     psi = 0.612*[#   1]+0.279*[#  41]+0.065*[#  25]+0.013*[#   2]+0.006*[#  42]+
          +0.004*[#  15]+0.004*[#  24]+0.002*[#  40]+0.002*[#  55]+0.002*[#  60]+
          +0.002*[#  39]+0.001*[#  26]+0.001*[#  52]+
    |psi|^2 = 1.000
     e =   -37.58419 eV
     psi = 0.705*[#   9]+0.193*[#  33]+0.019*[#   1]+0.017*[#  41]+0.016*[#  25]+
          +0.015*[#  10]+0.005*[#  34]+0.003*[#  32]+0.003*[#   7]+0.002*[#  47]+
          +0.002*[#  14]+0.002*[#  60]+0.002*[#  48]+0.002*[#  55]+0.001*[# 100]+
          +0.001*[#   6]+0.001*[#  30]+0.001*[#  46]+0.001*[#  83]+
    |psi|^2 = 1.000
     e =   -37.57728 eV
     psi = 0.609*[#  33]+0.088*[#   1]+0.083*[#  41]+0.079*[#  25]+0.066*[#   9]+
          +0.010*[#  34]+0.008*[#   6]+0.008*[#  30]+0.008*[#  46]+0.006*[#  38]+
          +0.005*[#  14]+0.005*[#  22]+0.002*[#  74]+0.002*[#  82]+0.002*[#  98]+
          +0.002*[#   2]+0.001*[#   8]+0.001*[#  26]+0.001*[#  42]+0.001*[#  50]+
          +0.001*[#  54]+0.001*[#  58]+0.001*[#  47]+
    |psi|^2 = 1.000
     e =   -33.97452 eV
     psi = 0.544*[# 124]+0.228*[# 142]+0.120*[# 161]+0.039*[# 125]+0.029*[# 179]+
          +0.010*[# 160]+0.004*[# 136]+0.004*[# 132]+0.003*[# 154]+0.002*[# 131]+
          +0.002*[# 135]+0.002*[# 150]+0.002*[# 178]+0.001*[# 153]+0.001*[# 143]+
          +0.001*[# 149]+
    |psi|^2 = 1.000
     e =   -33.97446 eV
     psi = 0.544*[# 125]+0.160*[# 179]+0.070*[# 178]+0.066*[# 161]+0.063*[# 160]+
          +0.039*[# 124]+0.017*[# 142]+0.014*[# 143]+0.005*[# 172]+0.004*[# 168]+
          +0.002*[# 171]+0.002*[# 154]+0.002*[# 167]+0.002*[# 150]+0.001*[# 149]+
          +0.001*[# 153]+
    |psi|^2 = 1.000
     e =   -33.84334 eV
     psi = 0.322*[# 143]+0.248*[# 160]+0.235*[# 178]+0.087*[# 179]+0.074*[# 161]+
          +0.006*[# 186]+0.005*[# 190]+0.003*[# 185]+0.002*[# 189]+0.001*[# 123]+
          +0.001*[# 141]+0.001*[# 159]+0.001*[# 177]+
    |psi|^2 = 1.000
     e =   -33.78924 eV
     psi = 0.675*[# 123]+0.099*[# 159]+0.099*[# 141]+0.099*[# 177]+0.002*[# 131]+
          +0.002*[# 149]+0.001*[# 160]+0.002*[# 167]+0.001*[#   6]+0.001*[#  30]+
          +0.001*[#  46]+0.001*[# 135]+0.001*[# 143]+0.001*[# 153]+0.001*[# 171]+
          +0.001*[# 190]+
    |psi|^2 = 1.000
     e =   -33.72005 eV
     psi = 0.306*[# 123]+0.225*[# 159]+0.224*[# 141]+0.223*[# 177]+0.002*[# 190]+
          +0.002*[# 185]+0.001*[# 170]+0.001*[# 174]+0.002*[# 179]+0.001*[# 189]+
          +0.001*[# 142]+0.001*[# 155]+0.001*[# 186]+0.001*[# 133]+
    |psi|^2 = 1.000
     e =   -33.67154 eV
     psi = 0.522*[# 159]+0.250*[# 141]+0.051*[# 177]+0.046*[# 124]+0.042*[# 161]+
          +0.032*[# 142]+0.027*[# 125]+0.010*[# 178]+0.004*[# 160]+0.003*[# 143]+
          +0.002*[# 138]+0.002*[# 187]+0.001*[# 169]+0.001*[# 173]+0.001*[# 192]+
    |psi|^2 = 1.000
     e =   -33.67139 eV
     psi = 0.497*[# 177]+0.297*[# 141]+0.047*[# 125]+0.039*[# 179]+0.027*[# 124]+
          +0.025*[# 159]+0.020*[# 142]+0.014*[# 160]+0.012*[# 178]+0.007*[# 143]+
          +0.002*[# 152]+0.002*[# 188]+0.001*[# 155]+0.001*[# 156]+0.001*[# 173]+
          +0.001*[# 191]+
    |psi|^2 = 1.000
     e =   -33.65374 eV
     psi = 0.221*[# 161]+0.191*[# 124]+0.166*[# 142]+0.130*[# 125]+0.105*[# 159]+
          +0.062*[# 178]+0.045*[# 141]+0.033*[# 160]+0.025*[# 143]+0.013*[# 177]+
          +0.002*[# 179]+0.001*[# 134]+0.001*[# 137]+
    |psi|^2 = 1.000
     e =   -33.65367 eV
     psi = 0.225*[# 179]+0.191*[# 125]+0.129*[# 124]+0.114*[# 142]+0.097*[# 177]+
          +0.084*[# 160]+0.065*[# 141]+0.049*[# 178]+0.033*[# 143]+0.003*[# 159]+
          +0.002*[# 161]+0.001*[# 151]+0.001*[# 156]+
    |psi|^2 = 1.000
     e =   -33.58976 eV
     psi = 0.329*[# 142]+0.254*[# 161]+0.239*[# 179]+0.091*[# 178]+0.075*[# 160]+
          +0.001*[# 141]+0.001*[# 159]+0.001*[# 177]+0.001*[# 173]+0.001*[# 169]+
    |psi|^2 = 1.000
     e =   -33.41378 eV
     psi = 0.446*[# 160]+0.246*[# 178]+0.129*[# 161]+0.102*[# 143]+0.064*[# 142]+
          +0.007*[# 124]+0.001*[# 125]+
    |psi|^2 = 1.000
     e =   -33.41369 eV
     psi = 0.478*[# 143]+0.210*[# 178]+0.202*[# 179]+0.077*[# 161]+0.014*[# 142]+
          +0.007*[# 125]+0.006*[# 160]+0.001*[# 124]+
    |psi|^2 = 1.000
     e =   -19.62932 eV
     psi = 0.171*[# 103]+0.171*[#  87]+0.170*[#  63]+0.149*[#  79]+0.149*[#  71]+
          +0.148*[#  95]+0.003*[#  66]+0.003*[#  90]+0.003*[# 106]+0.003*[# 109]+
          +0.003*[# 117]+0.003*[# 113]+0.003*[#  74]+0.003*[#  82]+0.003*[#  98]+
          +0.001*[#  70]+0.001*[#  78]+0.001*[#  94]+
    |psi|^2 = 1.000
     e =   -19.52806 eV
     psi = 0.180*[#  97]+0.158*[#  80]+0.144*[#  72]+0.128*[#  89]+0.101*[#  64]+
          +0.093*[# 104]+0.051*[#  73]+0.040*[#  81]+0.037*[# 105]+0.028*[#  65]+
          +0.011*[# 117]+0.010*[# 109]+0.003*[#  92]+0.003*[# 100]+0.002*[#  67]+
          +0.002*[#  83]+0.002*[# 107]+0.002*[#  75]+
    |psi|^2 = 1.000
     e =   -19.52738 eV
     psi = 0.192*[#  96]+0.147*[#  81]+0.135*[#  73]+0.130*[#  88]+0.101*[#  65]+
          +0.093*[# 105]+0.055*[#  72]+0.042*[#  80]+0.037*[# 104]+0.028*[#  64]+
          +0.013*[# 113]+0.004*[# 109]+0.003*[#  91]+0.003*[# 117]+0.003*[#  99]+
          +0.002*[#  68]+0.002*[# 108]+0.002*[#  84]+0.002*[#  76]+
    |psi|^2 = 1.000
     e =   -19.51672 eV
     psi = 0.248*[# 103]+0.210*[#  87]+0.178*[#  81]+0.137*[#  72]+0.118*[#  96]+
          +0.057*[#  97]+0.033*[#  73]+0.004*[# 120]+0.003*[# 111]+0.003*[# 115]+
          +0.002*[#  63]+0.001*[#  84]+0.001*[# 116]+
    |psi|^2 = 1.000
     e =   -19.51656 eV
     psi = 0.304*[#  63]+0.165*[#  80]+0.147*[#  73]+0.126*[#  97]+0.096*[#  87]+
          +0.058*[# 103]+0.055*[#  96]+0.030*[#  72]+0.004*[# 119]+0.003*[# 112]+
          +0.003*[# 116]+0.001*[# 115]+0.001*[#  76]+0.001*[#  83]+
    |psi|^2 = 1.000
     e =   -19.46698 eV
     psi = 0.308*[#  79]+0.240*[#  71]+0.141*[#  89]+0.119*[#  64]+0.093*[# 104]+
          +0.050*[# 105]+0.023*[#  65]+0.005*[# 116]+0.004*[#  95]+0.004*[# 119]+
          +0.003*[# 111]+0.002*[#  88]+0.002*[# 112]+0.001*[#  92]+0.001*[#  67]+
    |psi|^2 = 1.000
     e =   -19.46669 eV
     psi = 0.363*[#  95]+0.140*[#  88]+0.128*[#  71]+0.120*[#  65]+0.094*[# 105]+
          +0.060*[#  79]+0.049*[# 104]+0.023*[#  64]+0.005*[# 115]+0.004*[# 120]+
          +0.003*[# 112]+0.002*[#  89]+0.002*[# 111]+0.001*[#  91]+0.001*[#  68]+
    |psi|^2 = 1.000
     e =   -19.25591 eV
     psi = 0.188*[#  64]+0.161*[#  89]+0.137*[#  80]+0.127*[# 105]+0.108*[#  97]+
          +0.089*[#  73]+0.069*[# 104]+0.046*[#  72]+0.032*[#  88]+0.020*[#  96]+
          +0.008*[# 118]+0.003*[# 110]+0.003*[#  65]+0.002*[#  81]+0.001*[# 114]+
          +0.001*[# 117]+
    |psi|^2 = 1.000
     e =   -19.25586 eV
     psi = 0.190*[#  65]+0.163*[#  88]+0.133*[#  81]+0.125*[# 104]+0.109*[#  96]+
          +0.090*[#  72]+0.068*[# 105]+0.047*[#  73]+0.031*[#  89]+0.021*[#  97]+
          +0.007*[# 114]+0.005*[# 110]+0.002*[#  64]+0.002*[#  80]+0.001*[#  19]+
    |psi|^2 = 1.000
     e =   -19.23727 eV
     psi = 0.291*[#  96]+0.289*[#  72]+0.286*[#  80]+0.041*[#  64]+0.040*[# 104]+
          +0.037*[#  88]+0.003*[#  75]+0.003*[#  83]+0.003*[#  99]+0.002*[#  81]+
          +0.002*[#  97]+
    |psi|^2 = 1.000
     e =   -19.23666 eV
     psi = 0.292*[#  81]+0.291*[#  73]+0.283*[#  97]+0.041*[#  89]+0.039*[#  65]+
          +0.039*[# 105]+0.003*[#  76]+0.003*[#  84]+0.003*[# 100]+0.002*[#  80]+
          +0.001*[#  96]+
    |psi|^2 = 1.000
     e =   -19.22250 eV
     psi = 0.296*[# 103]+0.226*[#  87]+0.146*[#  81]+0.128*[#  72]+0.100*[#  96]+
          +0.059*[#  97]+0.027*[#  73]+0.004*[#  63]+0.004*[# 106]+0.003*[#  90]+
          +0.002*[#  80]+
    |psi|^2 = 1.000
     e =   -19.22225 eV
     psi = 0.344*[#  63]+0.148*[#  80]+0.126*[#  87]+0.123*[#  73]+0.107*[#  97]+
          +0.057*[# 103]+0.055*[#  96]+0.024*[#  72]+0.005*[#  66]+0.003*[#  81]+
          +0.002*[#  90]+0.001*[#  62]+
    |psi|^2 = 1.000
     e =   -19.19677 eV
     psi = 0.167*[#  79]+0.166*[#  71]+0.163*[#  95]+0.154*[#  63]+0.149*[#  87]+
          +0.148*[# 103]+0.013*[#  19]+0.005*[#  11]+0.005*[#  35]+0.003*[#   3]+
          +0.003*[#  27]+0.003*[#  43]+0.003*[#  62]+0.002*[#  86]+0.002*[# 102]+
          +0.002*[#  14]+0.002*[#  22]+0.002*[#  38]+0.002*[#  70]+0.002*[#  78]+
          +0.002*[#  94]+
    |psi|^2 = 1.000
     e =   -19.16697 eV
     psi = 0.235*[#  79]+0.194*[#  71]+0.185*[#  89]+0.151*[#  64]+0.125*[# 104]+
          +0.059*[# 105]+0.033*[#  65]+0.004*[#  82]+0.004*[#  74]+0.002*[#  95]+
          +0.002*[#  88]+0.001*[#  21]+
    |psi|^2 = 1.000
     e =   -19.16667 eV
     psi = 0.288*[#  95]+0.182*[#  88]+0.150*[#  65]+0.125*[# 105]+0.093*[#  71]+
          +0.061*[# 104]+0.051*[#  79]+0.034*[#  64]+0.005*[#  98]+0.002*[#  74]+
          +0.001*[#  20]+0.002*[#  89]+
    |psi|^2 = 1.000
     e =   -19.11767 eV
     psi = 0.276*[#  64]+0.276*[#  88]+0.272*[# 104]+0.037*[#  96]+0.037*[#  80]+
          +0.036*[#  72]+0.014*[#  65]+0.014*[# 105]+0.014*[#  89]+0.003*[#  67]+
          +0.003*[#  91]+0.003*[# 107]+0.002*[#  73]+0.002*[#  81]+0.002*[#  97]+
          +0.002*[# 111]+0.002*[# 115]+0.002*[# 119]+
    |psi|^2 = 1.000
     e =   -19.11765 eV
     psi = 0.278*[#  65]+0.274*[# 105]+0.272*[#  89]+0.037*[#  97]+0.037*[#  73]+
          +0.037*[#  81]+0.014*[# 104]+0.014*[#  64]+0.014*[#  88]+0.003*[#  68]+
          +0.003*[#  92]+0.003*[# 108]+0.002*[#  72]+0.002*[#  80]+0.002*[#  96]+
          +0.002*[# 112]+0.002*[# 116]+0.002*[# 120]+
    |psi|^2 = 1.000
     e =   -19.07357 eV
     psi = 0.356*[#  19]+0.139*[#  27]+0.138*[#  43]+0.138*[#   3]+0.065*[#  11]+
          +0.062*[#  35]+0.009*[#  28]+0.008*[#  95]+0.008*[#  71]+0.008*[#  79]+
          +0.007*[#   5]+0.007*[#  45]+0.004*[#   6]+0.004*[#  30]+0.004*[#  46]+
          +0.003*[#  49]+0.003*[#  53]+0.003*[#  57]+0.003*[#  63]+0.003*[#  87]+
          +0.003*[# 103]+0.002*[#   4]+0.002*[#  44]+0.002*[#  14]+0.002*[#  38]+
          +0.001*[#  18]+0.001*[#  22]+0.001*[#  10]+0.001*[#  34]+
    |psi|^2 = 1.000
     e =   -18.97173 eV
     psi = 0.454*[#  20]+0.088*[#  28]+0.082*[#  27]+0.066*[#   5]+0.065*[#  45]+
          +0.050*[#  12]+0.048*[#  36]+0.024*[#  44]+0.023*[#   3]+0.021*[#   4]+
          +0.019*[#  43]+0.011*[#  13]+0.010*[#  57]+0.009*[#  37]+0.003*[#  23]+
          +0.003*[#  49]+0.002*[#  31]+0.002*[#  53]+0.002*[#   8]+0.002*[#  48]+
          +0.002*[#  59]+0.002*[#  95]+0.001*[#  15]+0.001*[#  39]+0.001*[#  52]+
          +0.001*[#  56]+
    |psi|^2 = 1.000
     e =   -18.97142 eV
     psi = 0.453*[#  21]+0.089*[#  29]+0.068*[#   4]+0.065*[#  44]+0.064*[#  43]+
          +0.060*[#   3]+0.050*[#  13]+0.048*[#  37]+0.023*[#  45]+0.021*[#   5]+
          +0.012*[#  12]+0.010*[#  36]+0.007*[#  53]+0.007*[#  49]+0.003*[#  24]+
          +0.002*[#  32]+0.002*[#   7]+0.002*[#  47]+0.001*[#  16]+0.001*[#  40]+
          +0.001*[#  51]+0.001*[#  71]+0.001*[#  79]+0.001*[#  55]+0.001*[#  60]+
    |psi|^2 = 1.000
     e =   -18.93629 eV
     psi = 0.217*[#  19]+0.145*[#  11]+0.134*[#  28]+0.123*[#  35]+0.105*[#  45]+
          +0.097*[#   5]+0.037*[#   4]+0.030*[#  44]+0.029*[#  27]+0.028*[#  43]+
          +0.027*[#   3]+0.004*[#  59]+0.003*[#  52]+0.003*[#  56]+0.002*[#  31]+
          +0.001*[# 190]+0.001*[#   8]+0.001*[#  48]+0.001*[#  55]+
    |psi|^2 = 1.000
     e =   -18.90176 eV
     psi = 0.237*[#  43]+0.155*[#  36]+0.124*[#  12]+0.078*[#  13]+0.072*[#  27]+
          +0.068*[#   4]+0.051*[#  29]+0.048*[#   3]+0.045*[#  45]+0.043*[#  37]+
          +0.017*[#  28]+0.014*[#  21]+0.012*[#  44]+0.007*[#  20]+0.004*[#  53]+
          +0.003*[#  51]+0.002*[#  56]+0.002*[#  60]+0.002*[#  39]+0.002*[#  15]+
          +0.001*[#  57]+
    |psi|^2 = 1.000
     e =   -18.90165 eV
     psi = 0.191*[#   3]+0.165*[#  27]+0.155*[#  37]+0.124*[#  13]+0.078*[#  12]+
          +0.060*[#   5]+0.056*[#  44]+0.044*[#  36]+0.040*[#  28]+0.021*[#  29]+
          +0.016*[#  45]+0.014*[#  20]+0.007*[#  21]+0.004*[#  49]+0.003*[#  57]+
          +0.003*[#  52]+0.003*[#  55]+0.002*[#  40]+0.002*[#  59]+0.002*[#  16]+
          +0.001*[#  60]+
    |psi|^2 = 1.000
     e =   -18.86765 eV
     psi = 0.244*[#  35]+0.227*[#  11]+0.170*[#  29]+0.130*[#  44]+0.123*[#   4]+
          +0.046*[#   5]+0.039*[#  45]+0.005*[#  60]+0.004*[#  51]+0.004*[#  55]+
          +0.001*[#  56]+0.001*[#  32]+0.001*[#  52]+
    |psi|^2 = 1.000
     e =   -18.68773 eV
     psi = 0.406*[#  20]+0.093*[#  27]+0.091*[#  44]+0.090*[#   5]+0.085*[#  45]+
          +0.060*[#   4]+0.059*[#  28]+0.030*[#   3]+0.023*[#  37]+0.021*[#  13]+
          +0.016*[#  43]+0.005*[#  58]+0.003*[#  12]+0.003*[#  21]+0.003*[#  23]+
          +0.002*[#  29]+0.002*[#  50]+
    |psi|^2 = 1.000
     e =   -18.68757 eV
     psi = 0.405*[#  21]+0.199*[#  29]+0.105*[#   4]+0.076*[#  43]+0.073*[#  44]+
          +0.061*[#   3]+0.023*[#  36]+0.022*[#  12]+0.010*[#  45]+0.004*[#  54]+
          +0.003*[#  13]+0.003*[#  50]+0.003*[#  20]+0.003*[#  24]+0.002*[#   5]+
    |psi|^2 = 1.000
     e =   -18.64341 eV
     psi = 0.391*[#  19]+0.136*[#  28]+0.103*[#  45]+0.099*[#   5]+0.062*[#   3]+
          +0.061*[#  43]+0.061*[#  27]+0.034*[#   4]+0.032*[#  44]+0.005*[#  22]+
          +0.003*[#  18]+
    |psi|^2 = 1.000
     e =   -18.61378 eV
     psi = 0.249*[#  28]+0.224*[#  12]+0.140*[#  37]+0.088*[#  36]+0.070*[#  45]+
          +0.054*[#  13]+0.053*[#  44]+0.031*[#  20]+0.027*[#  27]+0.020*[#   4]+
          +0.018*[#  43]+0.010*[#   5]+0.003*[#  58]+0.002*[#  21]+0.002*[#  31]+
          +0.001*[#  15]+0.001*[#  54]+
    |psi|^2 = 1.000
     e =   -18.61335 eV
     psi = 0.222*[#  13]+0.192*[#   5]+0.143*[#  36]+0.120*[#  45]+0.087*[#  37]+
          +0.055*[#  12]+0.046*[#   4]+0.032*[#  21]+0.030*[#   3]+0.023*[#  44]+
          +0.013*[#  43]+0.012*[#  28]+0.006*[#  29]+0.004*[#  27]+0.002*[#  50]+
          +0.002*[#  20]+0.002*[#   8]+0.001*[#  16]+0.001*[#  54]+0.001*[#  48]+
    |psi|^2 = 1.000
     e =   -18.59285 eV
     psi = 0.179*[#  13]+0.167*[#  27]+0.124*[#  36]+0.117*[#   4]+0.110*[#  43]+
          +0.094*[#  37]+0.086*[#  44]+0.047*[#  28]+0.021*[#  20]+0.013*[#   5]+
          +0.011*[#  29]+0.007*[#  12]+0.006*[#   3]+0.003*[#  30]+0.003*[#  21]+
          +0.002*[#  46]+0.001*[#   7]+
    |psi|^2 = 1.000
     e =   -18.59275 eV
     psi = 0.181*[#   3]+0.175*[#  12]+0.126*[#  37]+0.124*[#  29]+0.092*[#  36]+
          +0.080*[#  43]+0.077*[#  45]+0.053*[#   5]+0.022*[#  27]+0.021*[#  21]+
          +0.021*[#  44]+0.007*[#  13]+0.003*[#   6]+0.003*[#  20]+0.002*[#  28]+
          +0.001*[#  46]+0.001*[#   4]+0.001*[#  32]+
    |psi|^2 = 1.000
     e =   -18.58395 eV
     psi = 0.324*[#  11]+0.242*[#  35]+0.091*[#   3]+0.087*[#  27]+0.087*[#  43]+
          +0.046*[#  28]+0.043*[#  45]+0.029*[#   5]+0.020*[#   4]+0.006*[#  44]+
          +0.002*[#   2]+0.002*[#  26]+0.002*[#  42]+0.002*[#  22]+0.002*[#  10]+
          +0.001*[#  34]+0.001*[# 189]+0.001*[# 190]+
    |psi|^2 = 1.000
     e =   -18.56191 eV
     psi = 0.301*[#  35]+0.212*[#  11]+0.157*[#  29]+0.126*[#  44]+0.111*[#   4]+
          +0.047*[#   5]+0.032*[#  45]+0.004*[#  38]+0.004*[#  14]+
    |psi|^2 = 1.000
     e =   -18.53026 eV
     psi = 0.235*[#  36]+0.229*[#  12]+0.149*[#  44]+0.144*[#   4]+0.136*[#  28]+
          +0.037*[#  20]+0.019*[#  27]+0.015*[#  37]+0.006*[#   3]+0.004*[#  43]+
          +0.002*[#   7]+0.002*[#  15]+0.002*[#  39]+0.002*[#  47]+0.002*[#  23]+
          +0.002*[#  29]+0.002*[#  31]+0.002*[#  51]+0.002*[#  55]+0.002*[#  45]+
          +0.001*[#  59]+
    |psi|^2 = 1.000
     e =   -18.53008 eV
     psi = 0.237*[#  37]+0.229*[#  13]+0.147*[#  29]+0.144*[#   5]+0.136*[#  45]+
          +0.037*[#  21]+0.016*[#  36]+0.015*[#  43]+0.014*[#   3]+0.002*[#   4]+
          +0.002*[#  16]+0.002*[#  32]+0.002*[#  40]+0.002*[#   8]+0.002*[#  24]+
          +0.002*[#  60]+0.002*[#  48]+0.001*[#  52]+0.001*[#  56]+0.001*[#  28]+
    |psi|^2 = 1.000
     e =   -13.13575 eV
     psi = 0.108*[# 135]+0.108*[# 153]+0.108*[# 171]+0.085*[# 189]+0.080*[# 122]+
          +0.072*[# 140]+0.072*[# 158]+0.072*[# 176]+0.039*[# 131]+0.039*[# 149]+
          +0.039*[# 167]+0.029*[# 185]+0.025*[#   6]+0.025*[#  30]+0.025*[#  46]+
          +0.009*[#   2]+0.009*[#  26]+0.009*[#  42]+0.005*[# 121]+0.005*[# 139]+
          +0.005*[# 157]+0.005*[# 175]+0.002*[#   3]+0.002*[#  27]+0.002*[#  43]+
          +0.002*[# 132]+0.002*[# 136]+0.002*[# 150]+0.002*[# 154]+0.002*[# 168]+
          +0.002*[# 172]+0.001*[# 190]+
    |psi|^2 = 0.999
     e =   -11.77019 eV
     psi = 0.154*[# 185]+0.146*[# 131]+0.146*[# 149]+0.146*[# 167]+0.132*[# 189]+
          +0.041*[# 135]+0.041*[# 171]+0.040*[# 153]+0.019*[#   6]+0.019*[#  30]+
          +0.019*[#  46]+0.014*[# 122]+0.009*[# 140]+0.009*[# 158]+0.009*[# 176]+
          +0.007*[#   2]+0.007*[#  26]+0.007*[#  42]+0.004*[# 141]+0.004*[# 159]+
          +0.004*[# 177]+0.003*[# 123]+0.002*[#  10]+0.002*[#  34]+0.001*[#  18]+
    |psi|^2 = 0.998
     e =   -11.44818 eV
     psi = 0.511*[# 153]+0.199*[# 171]+0.072*[# 135]+0.036*[# 149]+0.016*[# 167]+
          +0.013*[# 183]+0.012*[# 158]+0.011*[# 148]+0.010*[# 127]+0.010*[# 130]+
          +0.009*[# 182]+0.008*[# 145]+0.008*[# 129]+0.007*[#   6]+0.005*[# 140]+
          +0.005*[# 128]+0.005*[# 154]+0.005*[#   8]+0.004*[# 150]+0.004*[# 131]+
          +0.004*[#  47]+0.004*[# 184]+0.003*[#   2]+0.002*[#  30]+0.002*[#  32]+
          +0.002*[#  31]+0.002*[# 124]+0.002*[# 172]+0.002*[# 179]+0.002*[# 163]+
          +0.002*[# 168]+0.002*[# 142]+0.001*[# 176]+0.001*[#  26]+0.001*[# 125]+
          +0.001*[# 166]+0.001*[# 181]+0.001*[#   3]+0.001*[#  46]+
    |psi|^2 = 0.997
     e =   -11.44785 eV
     psi = 0.449*[# 135]+0.322*[# 171]+0.033*[# 131]+0.021*[# 167]+0.015*[# 165]+
          +0.011*[# 176]+0.011*[# 153]+0.010*[# 128]+0.010*[# 164]+0.010*[# 129]+
          +0.008*[# 148]+0.008*[# 130]+0.007*[# 140]+0.006*[#  46]+0.005*[# 127]+
          +0.005*[#  48]+0.005*[# 136]+0.004*[#  30]+0.004*[# 145]+0.004*[# 132]+
          +0.004*[# 166]+0.003*[# 181]+0.003*[#   7]+0.003*[#  31]+0.003*[# 172]+
          +0.003*[#  42]+0.003*[# 168]+0.003*[# 163]+0.002*[# 125]+0.002*[# 184]+
          +0.002*[# 161]+0.002*[#  26]+0.001*[#  32]+0.001*[# 124]+0.001*[# 146]+
          +0.001*[# 149]+
    |psi|^2 = 0.997
     e =   -11.36057 eV
     psi = 0.562*[# 189]+0.084*[# 135]+0.084*[# 171]+0.083*[# 153]+0.028*[# 146]+
          +0.021*[# 163]+0.021*[# 181]+0.010*[#  31]+0.008*[#  48]+0.007*[#   8]+
          +0.007*[# 131]+0.007*[# 149]+0.007*[# 164]+0.007*[# 167]+0.007*[# 182]+
          +0.007*[# 122]+0.005*[# 147]+0.004*[# 184]+0.004*[# 166]+0.003*[# 140]+
          +0.003*[# 158]+0.003*[# 176]+0.003*[#   7]+0.002*[#  47]+0.002*[# 190]+
          +0.001*[# 143]+0.001*[# 165]+0.001*[# 144]+0.001*[# 160]+0.001*[# 162]+
          +0.001*[# 180]+0.001*[# 123]+0.001*[# 178]+0.001*[# 183]+
    |psi|^2 = 0.998
     e =   -10.79122 eV
     psi = 0.633*[# 185]+0.069*[# 131]+0.067*[# 149]+0.066*[# 167]+0.027*[# 146]+
          +0.020*[# 163]+0.020*[# 181]+0.015*[# 122]+0.009*[# 147]+0.008*[# 186]+
          +0.007*[# 182]+0.007*[# 184]+0.007*[# 164]+0.006*[# 166]+0.005*[# 189]+
          +0.002*[# 140]+0.002*[# 158]+0.002*[# 165]+0.002*[# 176]+0.002*[# 143]+
          +0.002*[# 183]+0.002*[# 160]+0.002*[# 178]+0.001*[# 132]+0.001*[# 144]+
          +0.001*[# 150]+0.001*[# 162]+0.001*[# 168]+0.001*[# 180]+
    |psi|^2 = 0.998
     e =   -10.76372 eV
     psi = 0.508*[# 131]+0.222*[# 149]+0.059*[# 167]+0.042*[# 127]+0.034*[# 145]+
          +0.033*[# 135]+0.025*[# 164]+0.012*[# 153]+0.007*[# 130]+0.007*[# 148]+
          +0.006*[# 128]+0.005*[# 171]+0.005*[# 176]+0.005*[# 132]+0.004*[# 182]+
          +0.004*[# 165]+0.003*[# 181]+0.002*[# 150]+0.002*[# 158]+0.002*[# 136]+
          +0.001*[# 163]+0.001*[# 124]+
    |psi|^2 = 0.998
     e =   -10.76357 eV
     psi = 0.468*[# 167]+0.304*[# 149]+0.042*[# 128]+0.028*[# 171]+0.027*[# 182]+
          +0.021*[# 153]+0.017*[# 131]+0.014*[# 163]+0.011*[# 181]+0.007*[# 129]+
          +0.006*[# 127]+0.006*[# 164]+0.005*[# 146]+0.005*[# 145]+0.005*[# 183]+
          +0.004*[# 140]+0.004*[# 168]+0.003*[# 158]+0.003*[# 150]+0.002*[# 184]+
          +0.002*[# 165]+0.002*[# 166]+0.002*[# 172]+0.001*[# 125]+0.001*[# 154]+
    |psi|^2 = 0.998
     e =   -10.13324 eV
     psi = 0.223*[# 117]+0.223*[# 109]+0.219*[# 113]+0.033*[#  62]+0.033*[#  86]+
          +0.033*[# 102]+0.025*[#  70]+0.025*[#  78]+0.025*[#  94]+0.020*[#  74]+
          +0.020*[#  82]+0.020*[#  98]+0.015*[#  66]+0.015*[#  90]+0.015*[# 106]+
          +0.005*[#  61]+0.005*[#  63]+0.005*[#  85]+0.005*[#  87]+0.005*[# 101]+
          +0.005*[# 103]+0.004*[#  71]+0.004*[#  79]+0.004*[#  95]+0.004*[#  69]+
          +0.004*[#  77]+0.004*[#  93]+
    |psi|^2 = 0.999
     e =    -9.79698 eV
     psi = 0.423*[# 117]+0.404*[# 109]+0.023*[#  92]+0.019*[# 100]+0.017*[#  67]+
          +0.017*[# 107]+0.015*[#  83]+0.014*[#  75]+0.007*[#  89]+0.006*[# 108]+
          +0.006*[#  64]+0.005*[#  68]+0.005*[# 104]+0.005*[#  76]+0.005*[#  84]+
          +0.004*[#  97]+0.003*[#  80]+0.003*[#  72]+0.002*[# 105]+0.002*[#  65]+
          +0.001*[#  73]+
    |psi|^2 = 0.989
     e =    -9.79508 eV
     psi = 0.554*[# 113]+0.146*[# 109]+0.127*[# 117]+0.023*[#  91]+0.019*[#  99]+
          +0.017*[#  68]+0.017*[# 108]+0.015*[#  84]+0.014*[#  76]+0.007*[#  88]+
          +0.006*[# 107]+0.006*[#  65]+0.005*[#  67]+0.005*[# 105]+0.005*[#  75]+
          +0.005*[#  83]+0.004*[#  96]+0.003*[#  81]+0.003*[#  73]+0.002*[# 104]+
          +0.002*[#  64]+0.001*[#  72]+
    |psi|^2 = 0.989
     e =    -9.60769 eV
     psi = 0.219*[#  53]+0.219*[#  49]+0.219*[#  57]+0.028*[#  10]+0.028*[#  34]+
          +0.027*[#   2]+0.027*[#  26]+0.027*[#  42]+0.026*[#  18]+0.021*[#   6]+
          +0.021*[#  30]+0.021*[#  46]+0.018*[#  14]+0.018*[#  38]+0.018*[#  22]+
          +0.005*[#   3]+0.005*[#  27]+0.005*[#  43]+0.004*[#   9]+0.005*[#  11]+
          +0.005*[#  35]+0.004*[#  33]+0.004*[#  17]+0.004*[#  19]+0.004*[#   1]+
          +0.004*[#  25]+0.004*[#  41]+
    |psi|^2 = 0.999
     e =    -9.28409 eV
     psi = 0.545*[#  53]+0.164*[#  49]+0.112*[#  57]+0.023*[#   7]+0.022*[#  15]+
          +0.018*[#  32]+0.017*[#  24]+0.015*[#  40]+0.015*[#  48]+0.007*[#  39]+
          +0.007*[#  47]+0.006*[#   4]+0.006*[#  12]+0.005*[#  29]+0.004*[#  31]+
          +0.004*[#  21]+0.004*[#  23]+0.004*[#  37]+0.004*[#  45]+0.002*[#  36]+
          +0.002*[#  44]+0.001*[#  20]+0.001*[#  28]+
    |psi|^2 = 0.990
     e =    -9.28402 eV
     psi = 0.436*[#  57]+0.384*[#  49]+0.022*[#   8]+0.022*[#  16]+0.017*[#  31]+
          +0.017*[#  23]+0.016*[#  47]+0.015*[#  39]+0.007*[#  48]+0.007*[#  40]+
          +0.006*[#  13]+0.006*[#   5]+0.005*[#  32]+0.005*[#  44]+0.004*[#  20]+
          +0.004*[#  24]+0.004*[#  28]+0.004*[#  36]+0.002*[#  45]+0.002*[#  37]+
          +0.002*[#  53]+0.001*[#  29]+0.001*[#  21]+
    |psi|^2 = 0.990
     e =    -4.89282 eV
     psi = 0.168*[# 174]+0.126*[# 137]+0.125*[# 155]+0.059*[# 170]+0.058*[# 122]+
          +0.048*[# 147]+0.045*[# 133]+0.044*[# 151]+0.043*[# 156]+0.041*[# 138]+
          +0.036*[# 166]+0.035*[# 184]+0.020*[# 126]+0.016*[# 185]+0.015*[# 152]+
          +0.014*[# 134]+0.012*[# 183]+0.012*[# 165]+0.011*[# 190]+0.011*[# 186]+
          +0.007*[# 158]+0.007*[# 140]+0.007*[# 176]+0.006*[# 121]+0.004*[# 189]+
          +0.004*[#   7]+0.003*[#  32]+0.002*[#  48]+0.002*[#  47]+
    |psi|^2 = 0.993
     e =    -4.82952 eV
     psi = 0.196*[# 173]+0.172*[# 191]+0.147*[# 138]+0.055*[# 158]+0.043*[# 169]+
          +0.041*[# 187]+0.033*[# 192]+0.031*[# 134]+0.030*[# 130]+0.022*[# 162]+
          +0.018*[# 183]+0.018*[# 148]+0.018*[# 176]+0.015*[# 156]+0.014*[# 137]+
          +0.013*[# 149]+0.011*[# 155]+0.010*[# 140]+0.008*[# 188]+0.008*[# 180]+
          +0.007*[# 129]+0.005*[# 157]+0.005*[# 131]+0.004*[# 166]+0.004*[#  46]+
          +0.004*[# 144]+0.004*[# 174]+0.004*[# 133]+0.003*[# 150]+0.003*[# 127]+
          +0.003*[# 152]+0.003*[# 145]+0.003*[#  30]+0.002*[# 153]+0.002*[# 165]+
          +0.002*[# 167]+0.002*[#  31]+0.002*[#  42]+0.002*[# 151]+0.002*[#  26]+
          +0.002*[#  48]+0.002*[#   8]+0.002*[# 175]+0.002*[# 182]+0.001*[# 142]+
          +0.001*[# 154]+0.001*[#   7]+0.001*[# 124]+0.001*[# 132]+
    |psi|^2 = 0.993
     e =    -4.82910 eV
     psi = 0.172*[# 192]+0.167*[# 156]+0.065*[# 155]+0.063*[# 137]+0.045*[# 140]+
          +0.041*[# 188]+0.038*[# 173]+0.038*[# 176]+0.037*[# 152]+0.034*[# 138]+
          +0.033*[# 191]+0.030*[# 129]+0.020*[# 174]+0.018*[# 144]+0.016*[# 165]+
          +0.015*[# 180]+0.014*[# 151]+0.013*[# 133]+0.011*[# 167]+0.009*[# 184]+
          +0.009*[# 131]+0.008*[# 169]+0.008*[# 134]+0.008*[# 187]+0.007*[# 166]+
          +0.007*[# 130]+0.006*[# 147]+0.005*[# 148]+0.004*[#   6]+0.004*[# 139]+
          +0.003*[# 170]+0.003*[# 175]+0.003*[# 128]+0.003*[# 168]+0.003*[#   2]+
          +0.003*[# 164]+0.002*[#  32]+0.002*[#  47]+0.002*[# 132]+0.002*[# 171]+
          +0.002*[#  30]+0.001*[# 135]+0.002*[# 183]+0.001*[#   7]+0.001*[# 161]+
          +0.001*[# 172]+0.001*[# 125]+0.001*[# 182]+
    |psi|^2 = 0.993
     e =    -4.68832 eV
     psi = 0.095*[# 136]+0.095*[# 154]+0.095*[# 172]+0.067*[# 190]+0.065*[# 126]+
          +0.057*[# 132]+0.057*[# 144]+0.057*[# 150]+0.057*[# 162]+0.057*[# 168]+
          +0.057*[# 180]+0.036*[# 186]+0.016*[# 122]+0.015*[# 131]+0.015*[# 149]+
          +0.015*[# 167]+0.014*[# 140]+0.014*[# 158]+0.014*[# 176]+0.006*[#   2]+
          +0.006*[#  26]+0.006*[#  42]+0.006*[#   6]+0.006*[#  30]+0.006*[#  46]+
          +0.005*[# 121]+0.004*[# 135]+0.004*[# 153]+0.004*[# 171]+0.004*[# 139]+
          +0.004*[# 157]+0.004*[# 175]+0.004*[# 185]+0.002*[# 174]+0.002*[# 137]+
          +0.001*[#   3]+0.001*[#  27]+0.001*[#  43]+0.001*[# 155]+
    |psi|^2 = 0.989
     e =    -3.88416 eV
     psi = 0.129*[# 169]+0.127*[# 134]+0.110*[# 187]+0.068*[# 154]+0.049*[# 138]+
          +0.049*[# 173]+0.044*[# 127]+0.041*[# 188]+0.039*[# 145]+0.039*[# 191]+
          +0.032*[# 182]+0.023*[# 153]+0.018*[# 172]+0.018*[# 192]+0.018*[# 151]+
          +0.017*[# 130]+0.016*[# 136]+0.015*[# 133]+0.014*[# 148]+0.014*[# 183]+
          +0.013*[# 128]+0.011*[# 181]+0.008*[# 155]+0.007*[# 129]+0.007*[# 158]+
          +0.006*[# 171]+0.006*[# 170]+0.005*[# 159]+0.005*[# 135]+0.004*[# 137]+
          +0.004*[# 152]+0.002*[# 156]+0.002*[# 174]+0.002*[#  26]+0.002*[#   7]+
          +0.002*[#  32]+0.002*[# 184]+0.002*[# 140]+0.002*[# 166]+0.002*[#  30]+
          +0.002*[# 141]+0.001*[# 176]+0.001*[#   2]+0.001*[#   6]+0.001*[#  47]+
          +0.001*[# 177]+
    |psi|^2 = 0.991
     e =    -3.88404 eV
     psi = 0.133*[# 152]+0.110*[# 188]+0.052*[# 136]+0.049*[# 172]+0.049*[# 156]+
          +0.048*[# 169]+0.045*[# 133]+0.044*[# 128]+0.044*[# 151]+0.042*[# 164]+
          +0.041*[# 187]+0.039*[# 192]+0.019*[# 137]+0.018*[# 191]+0.018*[# 135]+
          +0.017*[# 129]+0.017*[# 173]+0.017*[# 155]+0.017*[# 170]+0.016*[# 171]+
          +0.016*[# 145]+0.016*[# 165]+0.013*[# 163]+0.013*[# 127]+0.012*[# 134]+
          +0.008*[# 174]+0.008*[# 182]+0.007*[# 130]+0.006*[# 148]+0.005*[# 176]+
          +0.005*[# 184]+0.005*[# 140]+0.005*[# 166]+0.004*[# 138]+0.004*[# 177]+
          +0.004*[# 141]+0.004*[# 181]+0.002*[#  31]+0.002*[#  42]+0.002*[#  46]+
          +0.002*[#   8]+0.002*[#  48]+0.002*[# 147]+0.001*[# 183]+0.001*[#   2]+
    |psi|^2 = 0.991
     e =    -3.81605 eV
     psi = 0.138*[# 190]+0.106*[# 170]+0.080*[# 151]+0.080*[# 174]+0.079*[# 133]+
          +0.063*[# 155]+0.057*[# 137]+0.048*[# 146]+0.038*[# 181]+0.034*[# 163]+
          +0.027*[# 134]+0.026*[# 152]+0.023*[# 138]+0.022*[# 189]+0.017*[# 156]+
          +0.016*[# 147]+0.014*[# 164]+0.013*[# 184]+0.012*[# 166]+0.010*[# 182]+
          +0.008*[# 136]+0.008*[# 154]+0.008*[# 172]+0.006*[# 123]+0.005*[#   8]+
          +0.005*[# 185]+0.005*[# 126]+0.005*[#  47]+0.005*[# 165]+0.004*[# 183]+
          +0.003*[#  31]+0.003*[# 122]+0.003*[# 135]+0.003*[# 153]+0.003*[# 171]+
          +0.002*[#  32]+0.001*[# 186]+
    |psi|^2 = 0.992
     e =    -3.20272 eV
     psi = 0.183*[# 154]+0.114*[# 150]+0.074*[# 162]+0.066*[# 172]+0.050*[# 183]+
          +0.049*[# 134]+0.044*[# 148]+0.042*[# 168]+0.042*[# 169]+0.041*[# 130]+
          +0.036*[# 187]+0.029*[# 136]+0.029*[# 144]+0.027*[# 129]+0.024*[# 149]+
          +0.021*[# 188]+0.017*[# 132]+0.012*[# 184]+0.010*[# 180]+0.009*[# 167]+
          +0.008*[# 151]+0.008*[# 133]+0.007*[# 153]+0.006*[# 166]+0.004*[# 131]+
          +0.003*[# 170]+0.002*[# 147]+0.002*[# 171]+0.002*[# 145]+0.002*[# 182]+
          +0.002*[# 124]+0.002*[#   2]+0.002*[# 158]+0.001*[#   8]+0.001*[#  47]+
          +0.001*[# 179]+0.001*[# 135]+0.001*[# 142]+0.001*[# 127]+
    |psi|^2 = 0.989
     e =    -3.20251 eV
     psi = 0.156*[# 136]+0.119*[# 172]+0.099*[# 132]+0.073*[# 168]+0.065*[# 180]+
          +0.056*[# 165]+0.051*[# 152]+0.046*[# 144]+0.041*[# 129]+0.036*[# 188]+
          +0.027*[# 130]+0.027*[# 148]+0.024*[# 169]+0.021*[# 131]+0.021*[# 187]+
          +0.015*[# 167]+0.014*[# 133]+0.014*[# 151]+0.014*[# 166]+0.011*[# 184]+
          +0.006*[# 135]+0.005*[# 170]+0.004*[# 171]+0.003*[# 183]+0.003*[# 154]+
          +0.002*[# 147]+0.002*[# 134]+0.002*[# 164]+0.002*[# 150]+0.002*[# 125]+
          +0.001*[#  42]+0.001*[#  48]+0.002*[# 162]+0.001*[# 161]+0.001*[# 176]+
          +0.001*[# 145]+0.001*[#   7]+0.001*[# 163]+
    |psi|^2 = 0.989
     e =    -2.87841 eV
     psi = 0.235*[# 190]+0.105*[# 186]+0.089*[# 170]+0.086*[# 126]+0.067*[# 151]+
          +0.065*[# 133]+0.047*[# 147]+0.037*[# 184]+0.033*[# 166]+0.023*[# 134]+
          +0.021*[# 152]+0.018*[# 136]+0.018*[# 154]+0.018*[# 172]+0.017*[# 185]+
          +0.014*[# 165]+0.011*[# 132]+0.011*[# 150]+0.011*[# 168]+0.010*[# 183]+
          +0.005*[# 144]+0.005*[# 162]+0.005*[# 180]+0.003*[# 122]+0.003*[# 143]+
          +0.003*[# 189]+0.002*[#  31]+0.002*[# 178]+0.002*[# 160]+0.002*[#  48]+
          +0.002*[#   8]+0.002*[# 123]+0.001*[# 131]+0.001*[# 149]+0.001*[# 167]+
    |psi|^2 = 0.987
     e =    -2.01336 eV
     psi = 0.142*[# 145]+0.122*[# 182]+0.119*[# 173]+0.099*[# 138]+0.093*[# 164]+
          +0.081*[# 156]+0.051*[# 163]+0.049*[# 169]+0.043*[# 134]+0.040*[# 155]+
          +0.032*[# 152]+0.022*[# 181]+0.021*[# 137]+0.018*[# 151]+0.018*[# 190]+
          +0.017*[# 186]+0.007*[# 133]+0.002*[# 146]+0.001*[# 165]+0.001*[# 184]+
          +0.002*[# 185]+0.001*[# 144]+0.001*[# 162]+0.001*[# 180]+
    |psi|^2 = 0.994
     e =    -1.98253 eV
     psi = 0.152*[# 127]+0.122*[# 191]+0.120*[# 163]+0.088*[# 155]+0.082*[# 187]+
          +0.052*[# 182]+0.047*[# 164]+0.036*[# 151]+0.032*[# 156]+0.031*[# 146]+
          +0.027*[# 192]+0.025*[# 128]+0.025*[# 138]+0.023*[# 137]+0.021*[# 145]+
          +0.019*[# 181]+0.019*[# 174]+0.016*[# 188]+0.014*[# 152]+0.012*[# 134]+
          +0.008*[# 170]+0.008*[# 133]+0.005*[# 173]+0.003*[# 169]+
    |psi|^2 = 0.993
     e =    -1.98216 eV
     psi = 0.151*[# 128]+0.137*[# 146]+0.122*[# 192]+0.115*[# 181]+0.103*[# 174]+
          +0.082*[# 188]+0.070*[# 137]+0.043*[# 170]+0.032*[# 133]+0.027*[# 191]+
          +0.025*[# 127]+0.016*[# 187]+0.014*[# 164]+0.011*[# 163]+0.010*[# 138]+
          +0.008*[# 182]+0.006*[# 155]+0.005*[# 145]+0.003*[# 134]+0.003*[# 151]+
          +0.002*[# 156]+0.002*[# 152]+0.001*[# 173]+0.001*[# 165]+
    |psi|^2 = 0.993
     e =    -1.78634 eV
     psi = 0.315*[# 186]+0.212*[# 190]+0.034*[# 137]+0.033*[# 181]+0.027*[# 174]+
          +0.026*[# 146]+0.025*[# 156]+0.024*[# 164]+0.021*[# 147]+0.021*[# 185]+
          +0.019*[# 133]+0.016*[# 166]+0.016*[# 170]+0.015*[# 184]+0.013*[# 152]+
          +0.012*[# 144]+0.012*[# 162]+0.012*[# 180]+0.011*[# 126]+0.010*[# 155]+
          +0.009*[# 163]+0.007*[# 145]+0.008*[# 173]+0.007*[# 151]+0.006*[# 183]+
          +0.005*[#   2]+0.005*[#  26]+0.005*[#  42]+0.005*[# 165]+0.005*[#  48]+
          +0.004*[#   7]+0.003*[#  50]+0.003*[#  54]+0.003*[#  58]+0.003*[# 169]+
          +0.003*[#  31]+0.002*[# 131]+0.002*[# 149]+0.002*[# 167]+0.002*[#  32]+
          +0.002*[#  38]+0.001*[#   6]+0.001*[#  22]+0.001*[#  30]+0.001*[#  46]+
          +0.001*[# 135]+0.001*[# 141]+0.001*[# 153]+0.001*[# 159]+0.001*[# 171]+
          +0.001*[# 177]+0.001*[#  18]+
    |psi|^2 = 0.988
     e =    -1.42508 eV
     psi = 0.182*[# 130]+0.121*[# 166]+0.101*[# 148]+0.099*[# 184]+0.066*[# 191]+
          +0.050*[# 155]+0.045*[# 137]+0.037*[# 133]+0.032*[# 173]+0.029*[# 151]+
          +0.028*[# 183]+0.024*[# 165]+0.023*[# 169]+0.019*[# 129]+0.018*[# 147]+
          +0.016*[# 138]+0.015*[# 187]+0.010*[# 154]+0.009*[# 192]+0.009*[# 174]+
          +0.007*[# 156]+0.007*[# 180]+0.006*[# 162]+0.005*[# 170]+0.005*[# 188]+
          +0.005*[# 134]+0.004*[# 136]+0.002*[# 181]+0.002*[# 168]+0.002*[# 145]+
          +0.001*[# 146]+0.001*[# 150]+0.001*[# 152]+0.001*[# 172]+
    |psi|^2 = 0.989
     e =    -1.42494 eV
     psi = 0.182*[# 129]+0.115*[# 183]+0.113*[# 147]+0.094*[# 165]+0.066*[# 192]+
          +0.053*[# 174]+0.039*[# 138]+0.037*[# 170]+0.034*[# 156]+0.030*[# 152]+
          +0.029*[# 148]+0.022*[# 134]+0.022*[# 166]+0.019*[# 130]+0.018*[# 184]+
          +0.014*[# 155]+0.015*[# 188]+0.012*[# 173]+0.009*[# 191]+0.009*[# 172]+
          +0.008*[# 144]+0.007*[# 151]+0.006*[# 136]+0.006*[# 137]+0.005*[# 187]+
          +0.003*[# 164]+0.002*[# 162]+0.002*[# 133]+0.002*[# 132]+0.002*[# 169]+
          +0.002*[# 180]+0.001*[# 150]+0.001*[# 181]+
    |psi|^2 = 0.989
     e =    -1.14015 eV
     psi = 0.060*[# 132]+0.060*[# 168]+0.059*[# 150]+0.051*[# 110]+0.051*[# 114]+
          +0.051*[# 118]+0.050*[# 136]+0.050*[# 172]+0.049*[# 154]+0.026*[#  70]+
          +0.026*[#  78]+0.026*[#  94]+0.024*[#  58]+0.024*[#  50]+0.024*[#  54]+
          +0.020*[#  22]+0.020*[#  14]+0.018*[#  38]+0.015*[# 126]+0.015*[#  10]+
          +0.015*[#  74]+0.015*[#  82]+0.015*[#  98]+0.013*[#  34]+0.011*[#   2]+
          +0.011*[#  26]+0.011*[#  42]+0.010*[#  18]+0.009*[#  62]+0.009*[#  86]+
          +0.009*[# 102]+0.007*[#  66]+0.007*[#  90]+0.007*[# 106]+0.007*[# 146]+
          +0.006*[# 189]+0.005*[#   6]+0.005*[#  30]+0.005*[#  46]+0.005*[# 181]+
          +0.005*[# 163]+0.004*[# 144]+0.004*[# 162]+0.004*[# 180]+0.004*[# 185]+
          +0.003*[# 170]+0.002*[# 133]+0.002*[# 174]+0.002*[# 151]+0.002*[# 164]+
          +0.002*[#  69]+0.002*[#  77]+0.002*[#  93]+0.002*[# 135]+0.002*[# 153]+
          +0.002*[# 155]+0.002*[# 171]+0.001*[#  17]+0.001*[# 137]+0.001*[# 182]+
          +0.001*[# 123]+0.001*[#   1]+0.001*[#  25]+0.001*[#  33]+0.001*[#  41]+
          +0.001*[#  48]+
    |psi|^2 = 0.979
     e =    -1.02137 eV
     psi = 0.091*[# 110]+0.091*[# 118]+0.091*[# 114]+0.057*[# 132]+0.057*[# 168]+
          +0.055*[# 150]+0.052*[# 136]+0.052*[# 172]+0.049*[# 154]+0.038*[#  70]+
          +0.038*[#  78]+0.038*[#  94]+0.018*[#  62]+0.018*[#  86]+0.018*[# 102]+
          +0.013*[#  66]+0.013*[#  74]+0.013*[#  82]+0.013*[#  90]+0.013*[#  98]+
          +0.013*[# 106]+0.011*[# 126]+0.009*[#  42]+0.008*[#   2]+0.009*[#  26]+
          +0.004*[# 146]+0.004*[# 163]+0.004*[# 189]+0.003*[# 162]+0.003*[#  38]+
          +0.003*[# 144]+0.003*[# 180]+0.003*[#  14]+0.003*[# 185]+0.002*[#  22]+
          +0.002*[# 181]+0.002*[# 186]+0.002*[#   6]+0.002*[#  18]+0.002*[#  30]+
          +0.002*[#  46]+0.002*[#  50]+0.002*[#  54]+0.002*[#  58]+0.002*[# 151]+
          +0.001*[#  53]+0.001*[#  69]+0.001*[#  77]+0.001*[#  93]+0.002*[# 170]+
          +0.002*[# 182]+0.002*[# 190]+0.001*[#  49]+0.001*[#  57]+0.001*[# 123]+
          +0.001*[# 135]+0.001*[# 153]+0.001*[# 171]+0.001*[# 174]+
    |psi|^2 = 0.970
     e =    -0.98722 eV
     psi = 0.153*[# 172]+0.145*[# 168]+0.120*[# 136]+0.113*[# 132]+0.068*[# 128]+
          +0.040*[# 181]+0.039*[# 146]+0.034*[# 156]+0.023*[# 165]+0.021*[# 152]+
          +0.017*[# 151]+0.016*[# 167]+0.016*[# 138]+0.014*[# 127]+0.012*[# 184]+
          +0.012*[# 131]+0.010*[# 169]+0.010*[# 130]+0.010*[# 164]+0.009*[# 144]+
          +0.009*[# 183]+0.008*[# 180]+0.006*[# 163]+0.005*[# 134]+0.005*[#  26]+
          +0.004*[# 155]+0.004*[# 173]+0.004*[#  48]+0.003*[# 174]+0.003*[# 188]+
          +0.003*[# 192]+0.003*[# 129]+0.003*[#  31]+0.003*[# 133]+0.002*[#   7]+
          +0.002*[#  54]+0.002*[# 170]+0.002*[# 137]+0.002*[#   2]+0.002*[# 150]+
          +0.002*[# 154]+0.002*[#  32]+0.002*[#  59]+0.002*[# 145]+0.002*[# 171]+
          +0.001*[#  58]+0.001*[# 135]+0.001*[#  23]+0.001*[#  30]+0.001*[#  52]+
          +0.001*[#  56]+0.001*[# 141]+0.001*[# 191]+
    |psi|^2 = 0.985
     e =    -0.98668 eV
     psi = 0.183*[# 154]+0.174*[# 150]+0.068*[# 127]+0.062*[# 136]+0.059*[# 132]+
          +0.035*[# 173]+0.031*[# 163]+0.030*[# 134]+0.030*[# 172]+0.027*[# 168]+
          +0.026*[# 148]+0.026*[# 169]+0.021*[# 182]+0.019*[# 149]+0.017*[# 164]+
          +0.014*[# 137]+0.014*[# 145]+0.014*[# 128]+0.011*[# 162]+0.010*[# 129]+
          +0.010*[# 138]+0.009*[# 146]+0.007*[# 131]+0.006*[# 165]+0.005*[# 184]+
          +0.005*[#   8]+0.004*[#  42]+0.004*[# 147]+0.004*[# 155]+0.004*[# 181]+
          +0.004*[# 183]+0.003*[#   2]+0.003*[# 180]+0.003*[# 187]+0.003*[#  47]+
          +0.003*[# 167]+0.003*[# 191]+0.003*[# 130]+0.003*[# 144]+0.003*[#  50]+
          +0.002*[#  31]+0.002*[# 153]+0.002*[#  60]+0.001*[# 133]+0.001*[# 159]+
          +0.001*[#  46]+0.001*[#  24]+0.001*[#  51]+0.001*[#  55]+0.001*[#  58]+
          +0.001*[# 192]+
    |psi|^2 = 0.985
     e =    -0.33635 eV
     psi = 0.095*[# 169]+0.072*[# 152]+0.071*[# 134]+0.057*[# 173]+0.054*[#  50]+
          +0.054*[#  54]+0.054*[#  58]+0.043*[# 156]+0.043*[# 138]+0.030*[#  18]+
          +0.024*[# 133]+0.023*[# 148]+0.023*[# 151]+0.022*[#  34]+0.022*[#  10]+
          +0.019*[# 183]+0.016*[# 165]+0.014*[# 137]+0.014*[# 155]+0.012*[# 110]+
          +0.012*[# 118]+0.012*[# 114]+0.012*[# 132]+0.012*[# 150]+0.012*[# 168]+
          +0.009*[# 136]+0.008*[# 154]+0.009*[# 172]+0.007*[#  14]+0.007*[#  38]+
          +0.007*[# 166]+0.007*[# 190]+0.006*[#  62]+0.006*[#  86]+0.006*[# 102]+
          +0.006*[# 145]+0.005*[# 186]+0.005*[# 182]+0.005*[# 184]+0.004*[# 164]+
          +0.004*[#  22]+0.003*[#   2]+0.003*[#  26]+0.003*[#  42]+0.003*[#  74]+
          +0.003*[#  82]+0.003*[#  98]+0.002*[# 163]+0.001*[#  66]+0.001*[#  90]+
          +0.001*[# 106]+0.001*[# 142]+0.001*[# 181]+
    |psi|^2 = 0.965
     e =    -0.20151 eV
     psi = 0.117*[# 145]+0.105*[# 163]+0.079*[# 127]+0.078*[# 133]+0.070*[# 181]+
          +0.063*[# 191]+0.053*[# 187]+0.039*[# 164]+0.038*[# 151]+0.034*[# 155]+
          +0.031*[# 137]+0.027*[# 169]+0.026*[# 192]+0.026*[# 170]+0.026*[# 173]+
          +0.021*[# 128]+0.020*[# 182]+0.018*[# 136]+0.018*[# 134]+0.014*[# 146]+
          +0.010*[# 148]+0.009*[# 188]+0.007*[# 138]+0.007*[# 132]+0.005*[# 156]+
          +0.005*[# 165]+0.005*[# 174]+0.005*[# 172]+0.004*[# 166]+0.004*[# 154]+
          +0.003*[# 168]+0.002*[# 180]+0.002*[# 152]+0.001*[#  26]+0.002*[# 184]+
          +0.001*[#  59]+0.001*[# 129]+
    |psi|^2 = 0.985
     e =    -0.20122 eV
     psi = 0.126*[# 182]+0.088*[# 164]+0.079*[# 128]+0.077*[# 146]+0.069*[# 170]+
          +0.063*[# 192]+0.053*[# 188]+0.051*[# 152]+0.035*[# 145]+0.034*[# 174]+
          +0.033*[# 151]+0.028*[# 138]+0.027*[# 156]+0.026*[# 181]+0.026*[# 191]+
          +0.022*[# 134]+0.021*[# 127]+0.014*[# 154]+0.013*[# 172]+0.011*[# 163]+
          +0.009*[# 183]+0.009*[# 187]+0.009*[# 133]+0.007*[# 173]+0.007*[# 155]+
          +0.007*[# 150]+0.005*[# 165]+0.004*[# 137]+0.004*[# 169]+0.004*[# 168]+
          +0.003*[# 148]+0.003*[# 184]+0.002*[# 144]+0.001*[# 162]+0.001*[#  42]+
          +0.001*[# 130]+0.001*[# 147]+0.001*[#  31]+0.001*[#  55]+
    |psi|^2 = 0.985
     e =    -0.19072 eV
     psi = 0.068*[# 169]+0.059*[#  50]+0.060*[#  54]+0.059*[#  58]+0.052*[# 134]+
          +0.051*[# 152]+0.050*[# 173]+0.038*[# 138]+0.037*[# 156]+0.034*[#  18]+
          +0.034*[# 186]+0.030*[#  34]+0.029*[#  10]+0.022*[# 165]+0.021*[# 148]+
          +0.019*[# 151]+0.016*[# 172]+0.016*[# 133]+0.015*[# 136]+0.016*[# 154]+
          +0.014*[# 184]+0.014*[# 110]+0.014*[# 118]+0.013*[# 114]+0.013*[# 137]+
          +0.012*[# 155]+0.011*[#  38]+0.011*[#  14]+0.010*[# 168]+0.010*[# 132]+
          +0.010*[# 183]+0.009*[# 150]+0.008*[#  22]+0.008*[#  62]+0.008*[#  86]+
          +0.008*[# 102]+0.005*[#  74]+0.005*[#  82]+0.005*[#  98]+0.004*[# 126]+
          +0.003*[# 144]+0.003*[# 162]+0.003*[# 147]+0.003*[# 180]+0.003*[#   2]+
          +0.002*[#  26]+0.002*[#  42]+0.002*[#   6]+0.002*[#  30]+0.002*[#  46]+
          +0.002*[#  66]+0.002*[#  90]+0.002*[# 106]+0.001*[# 182]+0.001*[#   9]+
          +0.001*[# 145]+0.001*[#  17]+0.001*[#  33]+0.001*[#  49]+0.001*[#  53]+
          +0.001*[#  57]+
    |psi|^2 = 0.967
     e =    -0.05051 eV
     psi = 0.235*[# 112]+0.210*[# 119]+0.142*[# 115]+0.092*[# 116]+0.057*[#  78]+
          +0.039*[#  94]+0.032*[# 120]+0.023*[#  82]+0.022*[# 108]+0.019*[#  67]+
          +0.016*[#  98]+0.013*[#  91]+0.009*[#  92]+0.006*[# 111]+0.005*[# 105]+
          +0.004*[#  64]+0.003*[#  88]+0.003*[#  68]+0.002*[#  89]+0.002*[#  40]+
          +0.002*[#  79]+0.002*[#  15]+0.002*[#  70]+0.001*[#  95]+0.001*[#  23]+
          +0.001*[#  77]+
    |psi|^2 = 0.948
     e =    -0.05046 eV
     psi = 0.236*[# 111]+0.209*[# 120]+0.141*[# 116]+0.093*[# 115]+0.063*[#  70]+
          +0.032*[# 119]+0.026*[#  94]+0.026*[#  74]+0.022*[# 107]+0.019*[#  68]+
          +0.013*[#  92]+0.010*[#  98]+0.009*[#  91]+0.008*[#  78]+0.006*[# 112]+
          +0.005*[# 104]+0.004*[#  65]+0.003*[#  82]+0.003*[#  89]+0.003*[#  67]+
          +0.002*[#  71]+0.002*[#  88]+0.002*[#  39]+0.002*[#  16]+0.001*[#  24]+
          +0.001*[#  69]+
    |psi|^2 = 0.948
     e =     0.04114 eV
     psi = 0.232*[# 119]+0.219*[# 112]+0.139*[# 116]+0.107*[# 115]+0.068*[#  62]+
          +0.031*[#  86]+0.023*[# 111]+0.022*[#  83]+0.022*[#  66]+0.021*[#  76]+
          +0.013*[# 100]+0.010*[#  99]+0.010*[#  90]+0.009*[# 120]+0.007*[# 102]+
          +0.003*[#  80]+0.003*[#  63]+0.003*[#  73]+0.002*[#  75]+0.002*[# 106]+
          +0.002*[#  61]+0.002*[#  97]+0.001*[#  96]+0.001*[#  87]+
    |psi|^2 = 0.958
     e =     0.04123 eV
     psi = 0.233*[# 120]+0.218*[# 111]+0.138*[# 115]+0.107*[# 116]+0.064*[# 102]+
          +0.040*[#  86]+0.023*[# 112]+0.022*[#  84]+0.021*[#  75]+0.020*[# 106]+
          +0.013*[#  99]+0.013*[#  90]+0.010*[# 100]+0.008*[# 119]+0.003*[#  81]+
          +0.003*[#  72]+0.003*[#  62]+0.003*[# 103]+0.002*[#  76]+0.002*[#  96]+
          +0.002*[# 101]+0.002*[#  87]+0.001*[#  97]+0.001*[#  85]+
    |psi|^2 = 0.958
     e =     0.05328 eV
     psi = 0.193*[# 187]+0.089*[# 191]+0.077*[# 155]+0.067*[# 151]+0.056*[# 156]+
          +0.047*[# 134]+0.045*[# 138]+0.044*[# 162]+0.044*[# 137]+0.040*[# 152]+
          +0.040*[# 133]+0.037*[# 150]+0.034*[# 180]+0.032*[# 132]+0.021*[# 173]+
          +0.018*[# 169]+0.009*[# 148]+0.009*[# 165]+0.007*[# 183]+0.006*[# 163]+
          +0.006*[# 181]+0.005*[# 188]+0.005*[# 166]+0.005*[# 174]+0.004*[# 127]+
          +0.004*[# 124]+0.004*[#  59]+0.002*[# 145]+0.002*[# 184]+0.002*[# 136]+
          +0.002*[# 170]+0.001*[#  55]+0.001*[# 164]+0.001*[# 158]+
    |psi|^2 = 0.975
     e =     0.05369 eV
     psi = 0.193*[# 188]+0.139*[# 174]+0.123*[# 170]+0.090*[# 192]+0.076*[# 137]+
          +0.055*[# 133]+0.053*[# 144]+0.045*[# 168]+0.034*[# 151]+0.030*[# 155]+
          +0.019*[# 180]+0.014*[# 132]+0.013*[# 147]+0.012*[# 184]+0.009*[# 150]+
          +0.008*[# 162]+0.007*[# 146]+0.005*[# 166]+0.005*[# 187]+0.004*[# 128]+
          +0.004*[# 125]+0.004*[# 182]+0.003*[# 164]+0.003*[#  52]+0.003*[# 165]+
          +0.002*[# 156]+0.002*[#  56]+0.002*[# 172]+0.002*[# 152]+0.001*[# 181]+
          +0.001*[# 154]+0.001*[# 140]+0.001*[# 143]+0.001*[# 167]+0.001*[# 183]+
    |psi|^2 = 0.975
     e =     0.20673 eV
     psi = 0.241*[# 186]+0.144*[# 126]+0.073*[# 190]+0.063*[# 147]+0.056*[# 162]+
          +0.056*[# 144]+0.056*[# 180]+0.055*[# 166]+0.040*[# 184]+0.024*[# 183]+
          +0.010*[# 150]+0.009*[# 132]+0.009*[# 168]+0.009*[# 165]+0.008*[# 185]+
          +0.005*[#  18]+0.005*[# 133]+0.004*[# 152]+0.004*[# 146]+0.003*[# 163]+
          +0.003*[# 181]+0.003*[# 170]+0.003*[#  10]+0.003*[#  50]+0.003*[#  54]+
          +0.003*[#  58]+0.002*[# 136]+0.002*[# 154]+0.002*[# 172]+0.002*[#  14]+
          +0.002*[#  34]+0.002*[# 138]+0.002*[# 169]+0.002*[# 155]+0.001*[#  62]+
          +0.001*[#  86]+0.001*[# 102]+0.001*[# 110]+0.001*[# 118]+0.001*[# 140]+
          +0.001*[# 158]+0.001*[# 173]+0.001*[# 176]+0.001*[#  38]+0.001*[# 148]+
    |psi|^2 = 0.945
     e =     0.46327 eV
     psi = 0.166*[#  59]+0.144*[# 114]+0.129*[#  52]+0.120*[#  56]+0.047*[#  55]+
          +0.042*[#  18]+0.037*[# 118]+0.037*[#  51]+0.029*[# 110]+0.020*[#  31]+
          +0.017*[#  10]+0.016*[#  48]+0.015*[#   8]+0.015*[#  99]+0.014*[#  34]+
          +0.013*[#  22]+0.011*[#  76]+0.010*[#  84]+0.006*[#  91]+0.006*[#   7]+
          +0.005*[#  47]+0.005*[# 108]+0.004*[#  68]+0.004*[#  83]+0.003*[#  75]+
          +0.003*[#  28]+0.003*[#  14]+0.002*[#  45]+0.002*[#   5]+0.002*[#  38]+
          +0.002*[#  17]+0.002*[# 126]+0.002*[#  19]+0.002*[#  67]+0.002*[# 132]+
          +0.002*[# 150]+0.002*[# 168]+0.001*[# 107]+
    |psi|^2 = 0.952
     e =     0.47966 eV
     psi = 0.165*[# 110]+0.153*[# 118]+0.138*[#  60]+0.108*[#  51]+0.100*[#  55]+
          +0.039*[#  56]+0.033*[#  34]+0.031*[#  52]+0.030*[#  10]+0.018*[# 100]+
          +0.015*[#  32]+0.014*[#  75]+0.013*[#  83]+0.012*[#  47]+0.011*[#   7]+
          +0.009*[#  92]+0.007*[# 107]+0.006*[#  38]+0.006*[#  67]+0.006*[#  14]+
          +0.005*[#  84]+0.004*[#   8]+0.004*[#  76]+0.003*[#  48]+0.002*[#  29]+
          +0.002*[#  68]+0.002*[# 108]+0.002*[#  44]+0.002*[#   4]+0.001*[#  33]+
          +0.001*[#   9]+
    |psi|^2 = 0.951
     e =     0.50701 eV
     psi = 0.285*[# 116]+0.282*[# 112]+0.282*[# 120]+0.003*[# 111]+0.003*[# 115]+
          +0.003*[# 119]+0.001*[#  76]+0.001*[#  84]+0.001*[# 100]+0.001*[#  68]+
    |psi|^2 = 0.867
     e =     0.50749 eV
     psi = 0.285*[# 115]+0.282*[# 111]+0.282*[# 119]+0.003*[# 112]+0.003*[# 116]+
          +0.003*[# 120]+0.001*[#  75]+0.001*[#  83]+0.001*[#  99]+0.001*[#  67]+
          +0.001*[#  91]+0.001*[# 107]+
    |psi|^2 = 0.868
     e =     0.52695 eV
     psi = 0.186*[#  59]+0.135*[#  52]+0.122*[#  56]+0.058*[#  55]+0.050*[# 168]+
          +0.040*[#  26]+0.028*[#  30]+0.028*[# 144]+0.019*[# 192]+0.018*[#  51]+
          +0.018*[# 183]+0.018*[# 150]+0.017*[# 162]+0.017*[# 129]+0.016*[#  23]+
          +0.016*[#   2]+0.014*[#  40]+0.013*[#   6]+0.009*[#  16]+0.009*[# 170]+
          +0.009*[# 165]+0.008*[# 132]+0.007*[# 133]+0.007*[#  60]+0.007*[# 184]+
          +0.006*[# 166]+0.006*[#  42]+0.005*[#  15]+0.005*[# 172]+0.004*[# 151]+
          +0.004*[# 174]+0.004*[# 188]+0.003*[# 154]+0.003*[# 182]+0.003*[#  20]+
          +0.003*[#  46]+0.003*[#  37]+0.003*[# 137]+0.002*[#  39]+0.002*[#  13]+
          +0.002*[# 152]+0.002*[# 163]+0.002*[#  27]+0.002*[# 181]+0.001*[# 148]+
          +0.001*[#  12]+0.001*[#  25]+0.001*[# 155]+0.001*[# 164]+0.001*[# 171]+
          +0.001*[# 180]+
    |psi|^2 = 0.955
     e =     0.52734 eV
     psi = 0.168*[#  51]+0.157*[#  60]+0.094*[#  55]+0.078*[#  56]+0.042*[# 132]+
          +0.036*[#  42]+0.033*[# 150]+0.030*[#  52]+0.030*[# 180]+0.027*[#  46]+
          +0.026*[# 148]+0.025*[#   2]+0.019*[# 191]+0.017*[# 130]+0.017*[#   6]+
          +0.016*[#  24]+0.014*[#  39]+0.013*[# 162]+0.011*[# 165]+0.009*[#  15]+
          +0.006*[# 152]+0.006*[# 169]+0.006*[#  16]+0.005*[# 134]+0.005*[# 136]+
          +0.005*[# 145]+0.004*[# 187]+0.004*[# 151]+0.003*[#  21]+0.003*[# 144]+
          +0.003*[# 183]+0.003*[# 164]+0.003*[#  36]+0.003*[# 156]+0.002*[#  40]+
          +0.002*[# 133]+0.002*[# 154]+0.002*[# 166]+0.002*[#  12]+0.002*[#  59]+
          +0.002*[# 155]+0.001*[#  43]+0.001*[# 135]+0.001*[# 137]+0.001*[# 173]+
          +0.001*[#  13]+0.001*[# 138]+0.001*[#  30]+0.001*[#  41]+0.001*[#   3]+
    |psi|^2 = 0.955
     e =     0.54935 eV
     psi = 0.385*[# 114]+0.111*[# 118]+0.087*[# 110]+0.066*[#  59]+0.052*[#  52]+
          +0.047*[#  56]+0.019*[#  55]+0.016*[#  91]+0.015*[#  22]+0.014*[#  51]+
          +0.014*[#  18]+0.013*[#  99]+0.012*[# 108]+0.011*[#  68]+0.010*[#  76]+
          +0.009*[#  84]+0.007*[#  31]+0.006*[#  10]+0.005*[#  48]+0.005*[#   8]+
          +0.005*[#  34]+0.004*[#  67]+0.004*[#  14]+0.004*[#  83]+0.003*[# 107]+
          +0.003*[#  38]+0.003*[#  75]+0.002*[#   7]+0.002*[#  47]+0.001*[#  28]+
          +0.001*[#  19]+
    |psi|^2 = 0.949
     e =     0.55616 eV
     psi = 0.248*[# 110]+0.229*[# 118]+0.100*[#  60]+0.078*[#  51]+0.073*[#  55]+
          +0.028*[#  56]+0.022*[#  52]+0.020*[#  34]+0.019*[#  10]+0.014*[#  38]+
          +0.013*[#  92]+0.013*[#  14]+0.010*[# 107]+0.009*[#  32]+0.009*[#  67]+
          +0.009*[# 100]+0.007*[#  47]+0.007*[#  75]+0.007*[#   7]+0.006*[#  83]+
          +0.004*[#  68]+0.003*[# 108]+0.003*[#   8]+0.003*[#  84]+0.002*[#  48]+
          +0.002*[#  76]+0.002*[#  29]+0.001*[#   4]+0.001*[#  44]+
    |psi|^2 = 0.951
     e =     0.63319 eV
     psi = 0.109*[# 168]+0.087*[# 144]+0.079*[#  52]+0.066*[#  59]+0.050*[# 172]+
          +0.046*[# 150]+0.046*[# 183]+0.043*[# 129]+0.031*[# 165]+0.030*[# 192]+
          +0.024*[# 162]+0.022*[#  56]+0.022*[# 184]+0.020*[# 180]+0.020*[#  55]+
          +0.017*[# 188]+0.016*[# 166]+0.016*[#  26]+0.015*[# 170]+0.013*[# 132]+
          +0.013*[# 151]+0.013*[# 154]+0.013*[#  58]+0.012*[# 136]+0.011*[# 174]+
          +0.009*[#  51]+0.007*[#  40]+0.007*[# 137]+0.006*[# 133]+0.006*[#  16]+
          +0.005*[#  54]+0.005*[#   2]+0.005*[# 155]+0.004*[# 134]+0.003*[#  23]+
          +0.003*[#  30]+0.003*[#  42]+0.003*[# 181]+0.003*[# 191]+0.002*[# 148]+
          +0.002*[# 147]+0.002*[#  27]+0.002*[#  50]+0.001*[#  15]+0.001*[#  13]+
          +0.001*[# 143]+0.001*[# 160]+0.001*[#  37]+
    |psi|^2 = 0.933
     e =     0.63389 eV
     psi = 0.100*[# 132]+0.075*[# 148]+0.068*[# 180]+0.066*[#  55]+0.066*[# 150]+
          +0.063*[# 162]+0.059*[#  60]+0.043*[# 130]+0.038*[# 136]+0.037*[# 154]+
          +0.031*[#  51]+0.030*[# 191]+0.029*[# 165]+0.024*[#  56]+0.017*[# 187]+
          +0.013*[#  42]+0.012*[#  52]+0.012*[#  50]+0.011*[#   2]+0.011*[# 183]+
          +0.010*[# 169]+0.010*[# 152]+0.009*[# 134]+0.008*[#  54]+0.007*[# 156]+
          +0.007*[# 133]+0.007*[#  39]+0.006*[#  15]+0.006*[#  59]+0.004*[# 137]+
          +0.004*[# 173]+0.004*[# 138]+0.004*[# 155]+0.003*[# 168]+0.003*[# 192]+
          +0.003*[#  24]+0.003*[# 164]+0.003*[# 166]+0.003*[#   6]+0.002*[# 151]+
          +0.002*[#  46]+0.002*[# 145]+0.002*[# 142]+0.001*[#  16]+0.001*[#  43]+
          +0.001*[# 161]+0.001*[#   3]+0.001*[#  12]+
    |psi|^2 = 0.933
     e =     0.90381 eV
     psi = 0.157*[# 126]+0.077*[# 144]+0.077*[# 180]+0.077*[# 162]+0.069*[# 150]+
          +0.069*[# 132]+0.069*[# 168]+0.024*[#  62]+0.024*[#  86]+0.024*[# 102]+
          +0.016*[#   2]+0.016*[#  26]+0.016*[#  42]+0.016*[#  70]+0.016*[#  78]+
          +0.016*[#  94]+0.013*[#  22]+0.009*[#  74]+0.009*[#  82]+0.009*[#  98]+
          +0.009*[#  34]+0.009*[#  38]+0.008*[#  10]+0.008*[#  14]+0.008*[#  50]+
          +0.008*[#  54]+0.008*[#  58]+0.008*[# 186]+0.006*[# 136]+0.006*[# 154]+
          +0.006*[# 172]+0.005*[# 110]+0.005*[# 118]+0.005*[# 109]+0.005*[# 113]+
          +0.005*[# 117]+0.004*[# 114]+0.004*[#  18]+0.003*[#  49]+0.003*[#  53]+
          +0.003*[#  57]+0.003*[#  66]+0.003*[#  90]+0.003*[# 106]+0.003*[# 147]+
          +0.003*[# 166]+0.001*[#  56]+0.001*[#  59]+0.002*[# 183]+0.001*[# 184]+
          +0.001*[#   9]+0.001*[#  33]+
    |psi|^2 = 0.969
     e =     1.02031 eV
     psi = 0.287*[#  60]+0.269*[#  56]+0.256*[#  52]+0.014*[#  50]+0.006*[#  58]+
          +0.003*[#   8]+0.003*[#  55]+0.003*[#  24]+0.003*[# 170]+0.002*[# 188]+
          +0.002*[#  40]+0.002*[# 192]+0.002*[#  54]+0.002*[# 174]+0.001*[#  59]+
          +0.001*[# 133]+0.001*[#  48]+0.001*[#  51]+
    |psi|^2 = 0.872
     e =     1.02056 eV
     psi = 0.286*[#  51]+0.272*[#  55]+0.255*[#  59]+0.013*[#  54]+0.008*[#  58]+
          +0.003*[#  31]+0.003*[#  23]+0.003*[#  52]+0.002*[#  60]+0.002*[# 187]+
          +0.002*[#  39]+0.002*[# 191]+0.001*[#  47]+0.001*[# 151]+0.001*[# 134]+
          +0.001*[# 152]+
    |psi|^2 = 0.872
     e =     1.09715 eV
     psi = 0.495*[#  50]+0.126*[#  54]+0.121*[#  58]+0.024*[#  39]+0.022*[#  16]+
          +0.020*[#  24]+0.016*[#  47]+0.015*[#  32]+0.014*[#  60]+0.010*[#   8]+
          +0.008*[# 154]+0.007*[#  23]+0.006*[#  15]+0.005*[#  56]+0.004*[#   7]+
          +0.004*[#  52]+0.004*[#  31]+0.004*[# 136]+0.004*[#  74]+0.004*[# 162]+
          +0.003*[# 180]+0.002*[# 148]+0.002*[# 150]+0.001*[#  13]+0.001*[# 187]+
          +0.001*[# 153]+0.001*[# 182]+0.001*[# 183]+
    |psi|^2 = 0.947
     e =     1.09727 eV
     psi = 0.373*[#  58]+0.368*[#  54]+0.024*[#  40]+0.022*[#  15]+0.020*[#  23]+
          +0.017*[#  48]+0.014*[#   7]+0.010*[#  31]+0.010*[#  51]+0.010*[#  55]+
          +0.008*[# 172]+0.007*[#  24]+0.006*[#  16]+0.005*[# 144]+0.004*[# 136]+
          +0.004*[#   8]+0.004*[#  32]+0.003*[#  82]+0.003*[#  98]+0.002*[#  59]+
          +0.002*[# 165]+0.002*[# 132]+0.001*[#  12]+0.001*[# 180]+0.001*[# 188]+
    |psi|^2 = 0.947
     e =     1.18007 eV
     psi = 0.058*[# 126]+0.052*[#  58]+0.052*[#  62]+0.052*[#  86]+0.052*[# 102]+
          +0.051*[#  54]+0.050*[#  50]+0.049*[# 162]+0.049*[# 144]+0.049*[# 180]+
          +0.039*[#  70]+0.039*[#  78]+0.039*[#  94]+0.022*[#  14]+0.021*[#  38]+
          +0.020*[#  22]+0.015*[# 132]+0.015*[# 150]+0.015*[# 168]+0.014*[# 136]+
          +0.014*[# 172]+0.014*[# 154]+0.012*[#  66]+0.012*[#  90]+0.012*[# 106]+
          +0.012*[# 113]+0.012*[# 109]+0.012*[# 117]+0.009*[#  74]+0.009*[#  82]+
          +0.009*[#  98]+0.008*[#   2]+0.008*[#  26]+0.008*[#  42]+0.005*[# 186]+
          +0.005*[# 190]+0.004*[# 114]+0.003*[# 110]+0.003*[# 118]+0.001*[#  17]+
          +0.001*[#  18]+0.001*[#  59]+0.001*[#  69]+0.001*[#  77]+0.001*[#  93]+
          +0.001*[# 189]+0.001*[#   6]+0.001*[#   9]+0.001*[#  30]+0.001*[#  33]+
          +0.001*[#  46]+0.001*[#  56]+
    |psi|^2 = 0.953
     e =     2.10090 eV
     psi = 0.125*[#  66]+0.125*[#  90]+0.125*[# 106]+0.052*[# 114]+0.051*[# 110]+
          +0.051*[# 118]+0.035*[#  74]+0.035*[#  82]+0.035*[#  98]+0.031*[#  62]+
          +0.031*[#  86]+0.031*[# 102]+0.012*[#  50]+0.012*[#  54]+0.012*[#  58]+
          +0.012*[#  70]+0.012*[#  78]+0.012*[#  94]+0.008*[#  18]+0.008*[#   2]+
          +0.008*[#  26]+0.008*[#  42]+0.007*[#  22]+0.007*[#  10]+0.007*[#  14]+
          +0.007*[#  34]+0.007*[#  38]+0.004*[#  61]+0.004*[#  85]+0.004*[# 101]+
          +0.004*[# 109]+0.003*[#  49]+0.003*[#  53]+0.003*[#  57]+0.003*[# 113]+
          +0.004*[# 117]+0.003*[#  69]+0.003*[#  77]+0.003*[#  93]+0.001*[#   9]+
          +0.001*[#  17]+0.001*[# 136]+0.001*[# 144]+0.001*[# 154]+0.001*[# 162]+
          +0.001*[# 180]+0.001*[#   6]+0.001*[#  30]+0.001*[#  33]+0.001*[#  46]+
          +0.001*[# 172]+
    |psi|^2 = 0.923
     e =     3.11346 eV
     psi = 0.148*[# 100]+0.127*[#  75]+0.108*[#  24]+0.094*[#  83]+0.088*[#  39]+
          +0.065*[#  15]+0.055*[#  84]+0.039*[#  16]+0.022*[#  76]+0.016*[#  40]+
          +0.005*[# 116]+0.004*[# 111]+0.004*[#  42]+0.004*[# 102]+0.003*[# 119]+
          +0.003*[# 101]+0.003*[#   2]+0.003*[#  62]+0.003*[#  60]+0.002*[#  99]+
          +0.002*[#  41]+0.002*[#  51]+0.002*[#  61]+0.002*[# 120]+0.002*[#  23]+
          +0.002*[#   1]+0.002*[#  55]+
    |psi|^2 = 0.819
     e =     3.11353 eV
     psi = 0.146*[#  99]+0.128*[#  76]+0.106*[#  23]+0.095*[#  84]+0.089*[#  40]+
          +0.066*[#  16]+0.055*[#  83]+0.039*[#  15]+0.022*[#  75]+0.015*[#  39]+
          +0.005*[# 115]+0.004*[#  26]+0.004*[#  86]+0.004*[# 112]+0.003*[#  85]+
          +0.003*[# 120]+0.003*[#  25]+0.003*[#  59]+0.003*[# 100]+0.002*[#  52]+
          +0.002*[# 119]+0.002*[#  24]+0.002*[#   2]+0.002*[#  56]+0.002*[#  62]+
          +0.001*[#  61]+0.001*[#  90]+
    |psi|^2 = 0.820
     e =     3.36345 eV
     psi = 0.367*[# 147]+0.288*[# 166]+0.201*[# 129]+0.033*[# 165]+0.012*[# 130]+
          +0.011*[# 184]+0.009*[# 137]+0.009*[# 191]+0.008*[# 173]+0.007*[# 183]+
          +0.004*[# 138]+0.004*[# 133]+0.004*[# 192]+0.004*[# 188]+0.004*[# 144]+
          +0.003*[# 162]+0.003*[# 169]+0.003*[# 187]+0.003*[# 134]+0.002*[# 163]+
          +0.002*[# 181]+
    |psi|^2 = 0.990
     e =     3.36362 eV
     psi = 0.306*[# 184]+0.202*[# 130]+0.147*[# 183]+0.086*[# 147]+0.083*[# 166]+
          +0.067*[# 165]+0.018*[# 148]+0.015*[# 156]+0.012*[# 129]+0.009*[# 192]+
          +0.006*[# 152]+0.005*[# 173]+0.005*[# 180]+0.004*[# 191]+0.004*[# 187]+
          +0.003*[# 169]+0.003*[# 188]+0.002*[# 146]+0.002*[# 174]+0.001*[# 138]+
          +0.001*[# 162]+
    |psi|^2 = 0.990
     e =     3.59551 eV
     psi = 0.311*[# 126]+0.065*[# 147]+0.051*[# 184]+0.048*[# 166]+0.045*[#  32]+
          +0.037*[#  47]+0.032*[#   7]+0.031*[# 144]+0.031*[# 162]+0.031*[# 180]+
          +0.021*[# 186]+0.018*[# 165]+0.017*[# 170]+0.015*[# 183]+0.015*[# 133]+
          +0.014*[#   8]+0.012*[# 151]+0.010*[# 174]+0.009*[#  48]+0.008*[# 137]+
          +0.007*[# 155]+0.006*[# 152]+0.004*[# 185]+0.003*[# 134]+0.003*[# 156]+
          +0.003*[# 131]+0.003*[# 149]+0.003*[# 167]+0.002*[#  60]+0.002*[# 138]+
          +0.002*[# 140]+0.002*[# 158]+0.002*[# 176]+0.002*[# 122]+0.002*[# 146]+
          +0.002*[#  55]+0.002*[# 181]+0.002*[#  51]+0.001*[# 100]+0.001*[# 135]+
          +0.001*[# 153]+0.001*[# 163]+0.001*[# 171]+0.001*[# 190]+0.001*[# 132]+
          +0.001*[# 150]+0.001*[# 168]+0.001*[#  33]+0.001*[#  83]+
    |psi|^2 = 0.898
     e =     3.66688 eV
     psi = 0.135*[# 174]+0.123*[# 156]+0.122*[# 138]+0.116*[# 164]+0.071*[# 129]+
          +0.065*[# 192]+0.060*[# 182]+0.056*[# 128]+0.052*[# 146]+0.030*[# 165]+
          +0.026*[# 130]+0.015*[# 183]+0.011*[# 145]+0.010*[# 184]+0.006*[# 147]+
          +0.005*[# 180]+0.005*[# 132]+0.005*[# 137]+0.004*[# 134]+0.004*[# 162]+
          +0.004*[# 173]+0.004*[# 163]+0.003*[# 152]+0.002*[# 155]+0.002*[# 150]+
          +0.001*[# 140]+0.001*[#   7]+0.001*[# 131]+
    |psi|^2 = 0.955
     e =     3.66712 eV
     psi = 0.131*[# 137]+0.130*[# 155]+0.119*[# 173]+0.099*[# 145]+0.088*[# 181]+
          +0.071*[# 130]+0.065*[# 191]+0.057*[# 127]+0.041*[# 163]+0.029*[# 148]+
          +0.025*[# 129]+0.016*[# 184]+0.013*[# 182]+0.006*[# 144]+0.005*[# 147]+
          +0.005*[# 166]+0.005*[# 156]+0.005*[# 165]+0.005*[# 169]+0.004*[# 168]+
          +0.003*[# 150]+0.003*[# 174]+0.002*[# 138]+0.002*[# 162]+0.002*[# 151]+
          +0.002*[# 164]+0.002*[# 176]+0.001*[# 133]+0.001*[# 167]+
    |psi|^2 = 0.955
     e =     3.71307 eV
     psi = 0.227*[# 180]+0.073*[# 144]+0.058*[# 130]+0.053*[# 165]+0.043*[# 192]+
          +0.043*[# 162]+0.028*[# 132]+0.021*[# 148]+0.021*[# 146]+0.020*[# 168]+
          +0.018*[# 128]+0.015*[# 181]+0.013*[# 173]+0.013*[# 191]+0.013*[# 169]+
          +0.012*[# 184]+0.010*[# 155]+0.010*[# 131]+0.009*[#   6]+0.010*[#   8]+
          +0.009*[# 164]+0.009*[#  47]+0.008*[#  31]+0.007*[#   2]+0.008*[# 187]+
          +0.007*[# 145]+0.007*[# 163]+0.007*[# 152]+0.007*[# 167]+0.005*[#  32]+
          +0.005*[# 174]+0.004*[#  16]+0.004*[# 129]+0.004*[#  39]+0.004*[#  23]+
          +0.003*[#  46]+0.003*[# 137]+0.003*[#  68]+0.003*[#  74]+0.003*[# 107]+
          +0.003*[#  24]+0.003*[#  48]+0.003*[# 151]+0.003*[#  49]+0.003*[#  98]+
          +0.002*[# 138]+0.002*[#  91]+0.002*[# 166]+0.002*[#  57]+0.002*[#  70]+
          +0.002*[#  26]+0.002*[# 188]+0.002*[#  42]+0.002*[#  94]+0.002*[# 170]+
          +0.002*[# 172]+0.001*[#  30]+0.001*[#  52]+0.001*[#  92]+0.001*[# 134]+
          +0.001*[# 153]+0.001*[# 176]+
    |psi|^2 = 0.876
     e =     3.71340 eV
     psi = 0.186*[# 162]+0.156*[# 144]+0.059*[# 129]+0.042*[# 191]+0.032*[# 150]+
          +0.031*[# 148]+0.028*[# 183]+0.023*[# 182]+0.022*[# 163]+0.019*[# 184]+
          +0.018*[# 127]+0.016*[# 138]+0.014*[# 134]+0.013*[# 192]+0.013*[#   7]+
          +0.012*[# 168]+0.011*[# 149]+0.009*[#  48]+0.009*[# 145]+0.008*[#  30]+
          +0.008*[# 147]+0.008*[# 188]+0.007*[#  32]+0.007*[# 156]+0.006*[#  46]+
          +0.006*[#  42]+0.006*[# 151]+0.005*[#  26]+0.005*[# 155]+0.005*[# 174]+
          +0.005*[#  15]+0.005*[# 167]+0.004*[# 132]+0.004*[# 166]+0.004*[# 130]+
          +0.004*[#  82]+0.003*[#  24]+0.003*[#  40]+0.003*[#  67]+0.003*[#  53]+
          +0.003*[# 146]+0.003*[#  23]+0.003*[#  31]+0.003*[# 108]+0.003*[# 164]+
          +0.003*[#  78]+0.002*[#  92]+0.002*[# 169]+0.002*[# 187]+0.002*[# 152]+
          +0.002*[# 154]+0.001*[#  47]+0.001*[# 131]+0.001*[# 133]+0.001*[#  56]+
          +0.001*[# 158]+0.001*[#  91]+0.001*[#  98]+0.001*[# 135]+0.001*[# 137]+
          +0.001*[# 180]+0.001*[#  57]+
    |psi|^2 = 0.877
     e =     3.82905 eV
     psi = 0.078*[#  22]+0.075*[#  99]+0.064*[#  84]+0.046*[#  76]+0.041*[#  18]+
          +0.030*[#  38]+0.029*[#  75]+0.017*[# 113]+0.016*[#  34]+0.016*[#  91]+
          +0.013*[#  68]+0.012*[#  14]+0.011*[#  83]+0.009*[# 108]+0.007*[#  10]+
          +0.006*[# 109]+0.006*[#  59]+0.006*[# 107]+0.005*[#  56]+0.005*[# 114]+
          +0.005*[#   8]+0.005*[#  31]+0.004*[#  52]+0.003*[# 148]+0.003*[#  47]+
          +0.002*[#  48]+0.002*[#  51]+0.002*[#  67]+0.002*[# 117]+0.002*[# 165]+
          +0.002*[# 110]+0.001*[# 100]+0.001*[# 183]+0.001*[# 184]+
    |psi|^2 = 0.541
     e =     3.84351 eV
     psi = 0.071*[# 100]+0.067*[#  14]+0.066*[#  83]+0.045*[#  38]+0.045*[#  75]+
          +0.038*[#  10]+0.029*[#  76]+0.025*[#  34]+0.014*[#  67]+0.014*[#  92]+
          +0.014*[# 117]+0.011*[# 126]+0.010*[# 109]+0.010*[# 107]+0.009*[#  84]+
          +0.007*[# 165]+0.007*[# 184]+0.006*[# 108]+0.005*[#  60]+0.004*[#  55]+
          +0.004*[# 118]+0.004*[# 148]+0.003*[# 110]+0.003*[#  51]+0.003*[# 147]+
          +0.003*[#  32]+0.002*[#  22]+0.002*[#   7]+0.002*[#  52]+0.002*[#  99]+
          +0.002*[#  47]+0.002*[#  68]+0.002*[# 144]+0.001*[# 133]+0.001*[# 162]+
          +0.001*[# 180]+0.001*[#  18]+
    |psi|^2 = 0.553
     e =     3.88646 eV
     psi = 0.265*[# 148]+0.202*[# 165]+0.197*[# 183]+0.068*[# 184]+0.065*[# 166]+
          +0.028*[# 173]+0.022*[# 138]+0.020*[# 156]+0.016*[# 169]+0.012*[# 152]+
          +0.012*[# 134]+0.008*[# 155]+0.006*[# 137]+0.004*[# 133]+0.004*[# 151]+
          +0.003*[#  34]+0.003*[#  38]+0.002*[#  75]+0.002*[# 164]+0.002*[# 145]+
          +0.002*[#  84]+0.002*[# 100]+0.002*[# 181]+
    |psi|^2 = 0.960
     e =     3.91095 eV
     psi = 0.154*[#  67]+0.146*[#  92]+0.093*[# 108]+0.069*[# 107]+0.026*[# 129]+
          +0.025*[# 144]+0.023*[# 162]+0.017*[#  91]+0.015*[# 133]+0.015*[# 130]+
          +0.015*[# 145]+0.014*[# 169]+0.012*[# 182]+0.011*[# 116]+0.011*[# 119]+
          +0.009*[# 134]+0.009*[# 151]+0.008*[# 152]+0.007*[# 112]+0.007*[#  15]+
          +0.006*[#  68]+0.005*[#  24]+0.005*[# 111]+0.004*[# 170]+0.004*[# 166]+
          +0.004*[# 154]+0.004*[#  77]+0.003*[# 192]+0.003*[#  39]+0.003*[#  40]+
          +0.003*[# 153]+0.002*[# 183]+0.002*[#  54]+0.002*[#  69]+0.002*[# 132]+
          +0.002*[#  82]+0.001*[# 172]+0.001*[# 115]+0.001*[# 181]+
    |psi|^2 = 0.761
     e =     3.91108 eV
[...]
          +0.002*[#  31]+0.002*[# 122]+0.002*[#  51]+0.002*[#  59]+0.002*[# 106]+
          +0.002*[#  48]+0.002*[# 137]+0.002*[# 182]+0.002*[#  66]+0.002*[# 156]+
          +0.001*[# 158]+0.001*[#  15]+0.001*[#  23]+0.001*[#  24]+0.001*[#  39]+
          +0.001*[#  52]+0.001*[# 134]+0.001*[# 138]+0.001*[# 163]+0.001*[# 181]+
          +0.001*[# 191]+
    |psi|^2 = 0.210
     e =     7.01816 eV
     psi = 0.013*[# 140]+0.012*[#  14]+0.010*[#  74]+0.009*[#  98]+0.009*[# 176]+
          +0.009*[# 158]+0.008*[#  10]+0.007*[#  66]+0.006*[#  82]+0.006*[# 106]+
          +0.006*[# 117]+0.006*[#  38]+0.006*[# 109]+0.006*[# 113]+0.005*[#  22]+
          +0.005*[#  18]+0.004*[#  34]+0.004*[#  47]+0.004*[#  90]+0.003*[#  49]+
          +0.003*[#  57]+0.003*[# 185]+0.003*[# 186]+0.002*[#  55]+0.003*[# 189]+
          +0.002*[#  53]+0.002*[#  78]+0.002*[#  54]+0.002*[#  70]+0.002*[# 111]+
          +0.002*[# 137]+0.002*[# 149]+0.002*[# 191]+0.002*[#   8]+0.002*[#  94]+
          +0.002*[# 145]+0.001*[#  48]+0.001*[# 102]+0.001*[# 118]+0.001*[# 153]+
          +0.001*[# 173]+0.001*[#  86]+0.001*[#  58]+0.001*[#  62]+0.001*[# 110]+
          +0.001*[# 114]+0.001*[# 150]+0.001*[# 180]+0.001*[# 192]+
    |psi|^2 = 0.228
     e =     7.06824 eV
     psi = 0.042*[# 122]+0.028*[#  66]+0.020*[#  38]+0.013*[#  51]+0.012*[# 158]+
          +0.011*[# 176]+0.011*[#  90]+0.011*[# 140]+0.010*[#  60]+0.010*[#  34]+
          +0.009*[#  55]+0.009*[# 106]+0.008*[#   6]+0.007*[#  32]+0.006*[#  10]+
          +0.006*[#   7]+0.006*[# 146]+0.005*[#  14]+0.004*[#  40]+0.004*[#  52]+
          +0.004*[#  46]+0.003*[#  30]+0.003*[#  83]+0.003*[# 119]+0.003*[# 186]+
          +0.003*[# 150]+0.003*[#  56]+0.003*[# 166]+0.003*[# 151]+0.002*[#  67]+
          +0.002*[#  82]+0.002*[#  26]+0.002*[# 182]+0.002*[#  24]+0.002*[# 133]+
          +0.002*[# 163]+0.002*[# 170]+0.002*[#  76]+0.002*[# 147]+0.002*[# 121]+
          +0.002*[# 189]+0.002*[#  50]+0.002*[#  53]+0.002*[#  62]+0.002*[# 100]+
          +0.001*[# 129]+0.001*[# 184]+0.001*[# 190]+0.001*[#  59]+0.001*[#  92]+
          +0.001*[# 138]+0.001*[# 183]+0.001*[# 192]+0.001*[#  23]+0.001*[#  54]+
          +0.001*[#  68]+0.001*[# 107]+0.001*[# 110]+0.001*[# 174]+
    |psi|^2 = 0.340
     e =     7.18839 eV
     psi = 0.020*[# 114]+0.019*[# 110]+0.019*[# 118]+0.009*[# 140]+0.008*[#  78]+
          +0.007*[#   8]+0.007*[# 100]+0.006*[#  70]+0.005*[#  94]+0.004*[#  76]+
          +0.004*[#  84]+0.004*[# 158]+0.004*[#  54]+0.004*[# 106]+0.004*[# 186]+
          +0.003*[#  40]+0.003*[#  10]+0.003*[#  32]+0.003*[#  34]+0.003*[#  42]+
          +0.003*[#  47]+0.003*[#   6]+0.003*[#  68]+0.003*[#  86]+0.002*[#  58]+
          +0.002*[# 102]+0.002*[#  16]+0.002*[#  23]+0.002*[#  83]+0.002*[#  98]+
          +0.002*[#  50]+0.002*[# 176]+0.002*[#  62]+0.002*[# 116]+0.002*[#  39]+
          +0.002*[#  74]+0.002*[#  90]+0.002*[#  92]+0.001*[#  31]+0.001*[#  22]+
          +0.001*[#  91]+0.001*[#  99]+0.001*[# 136]+0.001*[# 185]+0.001*[#   7]+
          +0.001*[#  18]+0.001*[#  48]+0.001*[#  24]+0.001*[# 189]+0.001*[#  75]+
    |psi|^2 = 0.218
     e =     7.25931 eV
     psi = 0.039*[# 158]+0.022*[# 140]+0.013*[#  22]+0.009*[#  18]+0.009*[#  82]+
          +0.009*[# 186]+0.008*[#   8]+0.007*[#  32]+0.007*[#  66]+0.006*[#  31]+
          +0.006*[#  48]+0.006*[# 176]+0.004*[#  42]+0.004*[# 118]+0.004*[#   7]+
          +0.004*[# 110]+0.004*[# 132]+0.003*[#  52]+0.003*[#  94]+0.003*[#   6]+
          +0.003*[#  10]+0.003*[# 146]+0.003*[#  15]+0.003*[# 136]+0.003*[# 114]+
          +0.003*[# 134]+0.003*[# 189]+0.003*[# 185]+0.002*[#  46]+0.002*[# 154]+
          +0.002*[#  90]+0.002*[# 108]+0.002*[#  59]+0.002*[#  60]+0.002*[#  70]+
          +0.002*[#  91]+0.002*[#  47]+0.002*[#   2]+0.001*[#  14]+0.001*[#  67]+
          +0.001*[# 106]+0.001*[# 173]+0.001*[#  24]+0.001*[#  26]+0.001*[#  38]+
          +0.001*[#  56]+0.001*[# 113]+0.001*[# 129]+0.001*[# 165]+0.001*[# 168]+
          +0.001*[# 181]+
    |psi|^2 = 0.270
     e =     7.44983 eV
     psi = 0.039*[# 176]+0.017*[# 122]+0.008*[#   2]+0.008*[#  47]+0.008*[# 140]+
          +0.008*[# 158]+0.007*[# 171]+0.007*[#  66]+0.006*[#  26]+0.005*[#  90]+
          +0.005*[#  30]+0.005*[# 167]+0.005*[# 189]+0.004*[#  38]+0.004*[# 191]+
          +0.004*[# 135]+0.004*[# 153]+0.004*[#  31]+0.004*[# 186]+0.004*[# 185]+
          +0.003*[#  74]+0.003*[#  46]+0.003*[#  55]+0.003*[#   8]+0.003*[#  98]+
          +0.003*[# 154]+0.002*[#  32]+0.003*[# 168]+0.003*[# 181]+0.002*[#   6]+
          +0.002*[#  48]+0.002*[# 131]+0.002*[# 137]+0.002*[# 152]+0.002*[# 150]+
          +0.002*[#  59]+0.002*[#  10]+0.002*[#  68]+0.002*[#  16]+0.002*[#  39]+
          +0.002*[#  51]+0.002*[#  83]+0.002*[# 130]+0.002*[# 172]+0.001*[#   7]+
          +0.001*[# 182]+0.001*[# 127]+0.001*[# 128]+0.001*[# 165]+0.001*[#  60]+
          +0.001*[#  94]+0.001*[# 132]+0.001*[# 149]+
    |psi|^2 = 0.256
     e =     7.50141 eV
     psi = 0.031*[# 140]+0.014*[#  66]+0.012*[# 158]+0.010*[#   6]+0.010*[# 186]+
          +0.007*[#  32]+0.007*[# 122]+0.007*[#  47]+0.006*[#   2]+0.007*[# 189]+
          +0.006*[#  42]+0.006*[# 153]+0.005*[#  31]+0.005*[#  98]+0.005*[# 185]+
          +0.005*[#   8]+0.004*[# 181]+0.004*[# 172]+0.003*[#  46]+0.003*[#  48]+
          +0.003*[# 176]+0.003*[#  22]+0.003*[# 135]+0.003*[#  18]+0.003*[# 163]+
          +0.003*[#  78]+0.002*[#  52]+0.002*[# 106]+0.002*[#  56]+0.002*[# 149]+
          +0.002*[#  16]+0.002*[#  26]+0.002*[#  34]+0.002*[#  30]+0.002*[# 136]+
          +0.002*[# 164]+0.002*[#  82]+0.001*[#  51]+0.001*[#  54]+0.002*[#  90]+
          +0.002*[# 144]+0.001*[#  74]+0.001*[# 108]+0.001*[# 147]+0.001*[# 192]+
          +0.001*[# 131]+0.001*[# 150]+0.001*[# 154]+0.001*[# 174]+0.001*[# 180]+
          +0.001*[#  50]+0.001*[#  70]+0.001*[# 100]+0.001*[# 112]+0.001*[# 115]+
          +0.001*[# 162]+0.001*[# 169]+0.001*[# 171]+
    |psi|^2 = 0.261
     e =     7.55364 eV
     psi = 0.015*[# 176]+0.008*[#  22]+0.008*[# 158]+0.005*[# 122]+0.005*[#  74]+
          +0.004*[#  53]+0.004*[# 140]+0.004*[#  30]+0.004*[#  46]+0.004*[#  14]+
          +0.004*[#  57]+0.003*[#  38]+0.003*[#   6]+0.003*[# 189]+0.003*[# 171]+
          +0.003*[#   8]+0.003*[#  47]+0.003*[#  26]+0.002*[# 135]+0.002*[# 186]+
          +0.002*[#  78]+0.002*[# 185]+0.002*[#  39]+0.002*[# 146]+0.002*[#   2]+
          +0.002*[#  49]+0.002*[#  94]+0.002*[# 106]+0.002*[# 182]+0.001*[#  66]+
          +0.001*[# 172]+0.001*[#  16]+0.001*[#  70]+0.001*[# 128]+0.001*[# 154]+
          +0.001*[# 192]+0.001*[#  18]+0.001*[# 131]+0.001*[# 136]+0.001*[# 149]+
          +0.001*[# 153]+0.001*[# 155]+0.001*[# 167]+
    |psi|^2 = 0.156
     e =     7.58013 eV
     psi = 0.015*[# 176]+0.012*[# 106]+0.010*[#   8]+0.010*[# 140]+0.004*[#  30]+
          +0.004*[#  74]+0.004*[# 186]+0.003*[# 189]+0.003*[#  24]+0.003*[#  42]+
          +0.003*[#  34]+0.003*[#  46]+0.003*[#   2]+0.003*[#  47]+0.003*[# 158]+
          +0.002*[#   7]+0.002*[#  23]+0.002*[#  56]+0.002*[# 171]+0.002*[#  38]+
          +0.002*[#  14]+0.002*[#  70]+0.002*[# 135]+0.002*[#  15]+0.002*[#  94]+
          +0.002*[#   6]+0.002*[#  50]+0.002*[#  67]+0.002*[#  40]+0.002*[#  78]+
          +0.002*[# 185]+0.001*[# 181]+0.001*[# 190]+0.001*[#  10]+0.001*[# 146]+
    |psi|^2 = 0.160
     e =     7.67677 eV
     psi = 0.009*[# 106]+0.009*[#  90]+0.009*[# 176]+0.009*[# 140]+0.008*[#  48]+
          +0.008*[#  70]+0.007*[#  66]+0.005*[#   6]+0.005*[#  16]+0.005*[#  18]+
          +0.004*[#  32]+0.003*[#  55]+0.003*[# 110]+0.003*[# 107]+0.003*[#  39]+
          +0.003*[#  92]+0.003*[#  54]+0.003*[#  58]+0.002*[#  84]+0.002*[#  38]+
          +0.002*[#  24]+0.002*[#  31]+0.002*[# 118]+0.002*[#  59]+0.002*[#  47]+
          +0.002*[# 102]+0.001*[#  14]+0.002*[#  42]+0.002*[#  74]+0.002*[#  86]+
          +0.002*[# 100]+0.002*[# 108]+0.002*[# 114]+0.001*[#  10]+0.001*[#  23]+
          +0.001*[#  56]+0.001*[# 120]+0.001*[#  68]+0.001*[# 156]+
    |psi|^2 = 0.158
     e =     7.72125 eV
     psi = 0.007*[#  66]+0.006*[#  90]+0.005*[#  40]+0.005*[#  15]+0.004*[#   6]+
          +0.004*[#  94]+0.004*[#  76]+0.004*[# 112]+0.003*[# 108]+0.003*[#  67]+
          +0.003*[# 140]+0.003*[# 176]+0.003*[#  68]+0.003*[# 114]+0.003*[# 118]+
          +0.002*[#  92]+0.002*[#  91]+0.002*[#  52]+0.002*[#  84]+0.002*[#  99]+
          +0.002*[# 119]+0.002*[# 110]+0.002*[# 158]+0.002*[#  30]+0.002*[#  75]+
          +0.001*[#  14]+0.002*[#  22]+0.001*[#  31]+0.001*[#  47]+0.002*[#  59]+
          +0.001*[#  78]+0.001*[#  86]+0.001*[#  70]+0.001*[# 100]+0.001*[#  18]+
          +0.001*[#  46]+0.001*[#  48]+0.001*[#  55]+
    |psi|^2 = 0.125
     e =     7.75938 eV
     psi = 0.019*[#  46]+0.017*[# 158]+0.012*[# 106]+0.007*[#  90]+0.007*[#  92]+
          +0.004*[#  39]+0.004*[#  50]+0.004*[#   6]+0.004*[#  31]+0.003*[#  22]+
          +0.003*[#  54]+0.003*[# 140]+0.003*[# 176]+0.003*[#  58]+0.003*[#  18]+
          +0.003*[#  38]+0.003*[# 107]+0.002*[#  16]+0.002*[#   8]+0.002*[#  48]+
          +0.002*[#  52]+0.002*[#  82]+0.002*[# 116]+0.002*[#  10]+0.002*[#  14]+
          +0.002*[#  59]+0.002*[#  78]+0.002*[#  56]+0.002*[#  74]+0.002*[# 111]+
          +0.002*[# 115]+0.001*[#  34]+0.001*[#  51]+0.002*[#  94]+0.002*[# 108]+
          +0.001*[#  23]+0.001*[#  67]+0.001*[# 135]+0.001*[# 122]+0.001*[# 189]+
          +0.001*[#  84]+0.001*[#  15]+0.001*[#  26]+0.001*[#  30]+
    |psi|^2 = 0.187
     e =     7.79963 eV
     psi = 0.015*[# 140]+0.015*[#  90]+0.011*[#  78]+0.010*[#  94]+0.010*[#   6]+
          +0.009*[# 106]+0.007*[#  22]+0.006*[#  30]+0.005*[#   7]+0.005*[#  62]+
          +0.005*[# 102]+0.005*[# 122]+0.004*[#  70]+0.004*[#   8]+0.004*[#  50]+
          +0.004*[#  86]+0.004*[#  54]+0.003*[#   2]+0.003*[# 153]+0.003*[#  18]+
          +0.003*[#  10]+0.003*[#  40]+0.003*[#  75]+0.002*[#  14]+0.002*[#  34]+
          +0.002*[#  76]+0.002*[#  91]+0.002*[#  38]+0.002*[#  31]+0.002*[#  66]+
          +0.002*[# 107]+0.001*[#  24]+0.001*[#  32]+0.001*[#  48]+0.001*[#  52]+
          +0.001*[#  82]+0.001*[# 109]+0.001*[# 120]+0.001*[# 158]+0.001*[# 189]+
          +0.001*[#  16]+0.001*[#  92]+0.001*[# 176]+0.001*[#  98]+0.001*[# 117]+

     e =     7.66753 eV
     psi = 0.023*[# 122]+0.020*[# 176]+0.019*[# 140]+0.019*[# 158]+0.014*[# 171]+
          +0.014*[#  30]+0.014*[# 135]+0.014*[# 153]+0.013*[#  46]+0.013*[#   6]+
          +0.008*[#  18]+0.007*[#  10]+0.007*[# 189]+0.006*[# 190]+0.005*[# 167]+
          +0.005*[# 185]+0.005*[#  48]+0.005*[# 131]+0.005*[# 149]+0.005*[# 108]+
          +0.005*[#  14]+0.005*[#   7]+0.005*[#  91]+0.004*[#  31]+0.003*[#  17]+
          +0.003*[#  67]+0.002*[#  49]+0.002*[#  52]+0.002*[#  53]+0.002*[#  57]+
          +0.002*[# 132]+0.002*[#  68]+0.002*[# 150]+0.002*[# 168]+0.002*[#  59]+
          +0.002*[# 126]+0.002*[#  55]+0.002*[#  32]+0.001*[# 186]+
    |psi|^2 = 0.287
     e =     7.75107 eV
     psi = 0.038*[# 176]+0.037*[#  90]+0.030*[# 158]+0.026*[#  30]+0.019*[#  66]+
          +0.018*[#   6]+0.010*[# 106]+0.008*[# 140]+0.006*[#  46]+0.005*[#  23]+
          +0.005*[#  86]+0.004*[# 112]+0.004*[#  59]+0.003*[#  52]+0.003*[#  56]+
          +0.003*[#  62]+0.003*[# 169]+0.002*[#  40]+0.002*[# 148]+0.002*[#  98]+
          +0.002*[#  15]+0.002*[#  76]+0.002*[# 173]+0.002*[#   8]+0.002*[#  99]+
          +0.001*[#  55]+0.001*[# 175]+0.001*[#  82]+0.001*[# 102]+0.001*[# 108]+
          +0.001*[# 152]+0.001*[# 157]+0.001*[# 165]+
    |psi|^2 = 0.274

Lowdin Charges: 

           1           1   2.2543904191503752        6.8304921142286519        0.0000000000000000     
     Atom #   1: total charge =   9.0849, s =  2.2544, 
     Atom #   1: total charge =   9.0849, p =  6.8305, 
     Atom #   1: total charge =   9.0849, d =  0.0000, 
           1           1   2.2722410252712386        6.9059129749224439        0.0000000000000000     
     Atom #   2: total charge =   9.1782, s =  2.2722, 
     Atom #   2: total charge =   9.1782, p =  6.9059, 
     Atom #   2: total charge =   9.1782, d =  0.0000, 
           1           1   2.2689885473120301        6.9134504527309693        0.0000000000000000     
     Atom #   3: total charge =   9.1824, s =  2.2690, 
     Atom #   3: total charge =   9.1824, p =  6.9135, 
     Atom #   3: total charge =   9.1824, d =  0.0000, 
           1           1   2.2508521639670542        6.8320074228017402        0.0000000000000000     
     Atom #   4: total charge =   9.0829, s =  2.2509, 
     Atom #   4: total charge =   9.0829, p =  6.8320, 
     Atom #   4: total charge =   9.0829, d =  0.0000, 
           1           1   2.2713668283350890        6.9044400394207388        0.0000000000000000     
     Atom #   5: total charge =   9.1758, s =  2.2714, 
     Atom #   5: total charge =   9.1758, p =  6.9044, 
     Atom #   5: total charge =   9.1758, d =  0.0000, 
           1           1   2.2530001897887013        6.8373730439168980        0.0000000000000000     
     Atom #   6: total charge =   9.0904, s =  2.2530, 
     Atom #   6: total charge =   9.0904, p =  6.8374, 
     Atom #   6: total charge =   9.0904, d =  0.0000, 
           1           1   1.6080516965298293        4.6265109870912609        0.0000000000000000     
     Atom #   7: total charge =   6.2346, s =  1.6081, 
     Atom #   7: total charge =   6.2346, p =  4.6265, 
     Atom #   7: total charge =   6.2346, d =  0.0000, 
           1           1   1.6070560926882533        4.6204010884444280        0.0000000000000000     
     Atom #   8: total charge =   6.2275, s =  1.6071, 
     Atom #   8: total charge =   6.2275, p =  4.6204, 
     Atom #   8: total charge =   6.2275, d =  0.0000, 
           1           1   1.6076685789478515        4.6296718044122791        0.0000000000000000     
     Atom #   9: total charge =   6.2373, s =  1.6077, 
     Atom #   9: total charge =   6.2373, p =  4.6297, 
     Atom #   9: total charge =   6.2373, d =  0.0000, 
           1           1   2.2987787329072651        6.6938928249165768        0.0000000000000000     
     Atom #  10: total charge =   8.9927, s =  2.2988, 
     Atom #  10: total charge =   8.9927, p =  6.6939, 
     Atom #  10: total charge =   8.9927, d =  0.0000, 
           1           1   2.3098786847540071        6.9647673921976967        0.0000000000000000     
     Atom #  11: total charge =   9.2746, s =  2.3099, 
     Atom #  11: total charge =   9.2746, p =  6.9648, 
     Atom #  11: total charge =   9.2746, d =  0.0000, 
           1           1   2.3101036842258624        6.9649323477826197        0.0000000000000000     
     Atom #  12: total charge =   9.2750, s =  2.3101, 
     Atom #  12: total charge =   9.2750, p =  6.9649, 
     Atom #  12: total charge =   9.2750, d =  0.0000, 
           1           1   2.2987419170323253        6.6939230839978867        0.0000000000000000     
     Atom #  13: total charge =   8.9927, s =  2.2987, 
     Atom #  13: total charge =   8.9927, p =  6.6939, 
     Atom #  13: total charge =   8.9927, d =  0.0000, 
           1           1   2.3098155352839638        6.9642951094642456        0.0000000000000000     
     Atom #  14: total charge =   9.2741, s =  2.3098, 
     Atom #  14: total charge =   9.2741, p =  6.9643, 
     Atom #  14: total charge =   9.2741, d =  0.0000, 
           1           1   2.2987846718406875        6.6939593792402059        0.0000000000000000     
     Atom #  15: total charge =   8.9927, s =  2.2988, 
     Atom #  15: total charge =   8.9927, p =  6.6940, 
     Atom #  15: total charge =   8.9927, d =  0.0000, 
           1           1   1.6256322994938117        4.6224451619442428        0.0000000000000000     
     Atom #  16: total charge =   6.2481, s =  1.6256, 
     Atom #  16: total charge =   6.2481, p =  4.6224, 
     Atom #  16: total charge =   6.2481, d =  0.0000, 
           1           1   1.6259388095931548        4.6213190102392581        0.0000000000000000     
     Atom #  17: total charge =   6.2473, s =  1.6259, 
     Atom #  17: total charge =   6.2473, p =  4.6213, 
     Atom #  17: total charge =   6.2473, d =  0.0000, 
           1           1   1.6255496566783667        4.6223343082099406        0.0000000000000000     
     Atom #  18: total charge =   6.2479, s =  1.6255, 
     Atom #  18: total charge =   6.2479, p =  4.6223, 
     Atom #  18: total charge =   6.2479, d =  0.0000, 
           1           1   2.4750692320134768        5.9938379374296975        5.0770228276475393     
     Atom #  19: total charge =  13.5459, s =  2.4751, 
     Atom #  19: total charge =  13.5459, p =  5.9938, 
     Atom #  19: total charge =  13.5459, d =  5.0770, 
           1           1   1.8093529893707381        4.3318416587814355        0.0000000000000000     
     Atom #  20: total charge =   6.1412, s =  1.8094, 
     Atom #  20: total charge =   6.1412, p =  4.3318, 
     Atom #  20: total charge =   6.1412, d =  0.0000, 
           1           1   1.6797196853078367        4.5062118808267035        0.0000000000000000     
     Atom #  21: total charge =   6.1859, s =  1.6797, 
     Atom #  21: total charge =   6.1859, p =  4.5062, 
     Atom #  21: total charge =   6.1859, d =  0.0000, 
           1           1   2.4771133460072368        5.9931216829655058        5.0534508212869023     
     Atom #  22: total charge =  13.5237, s =  2.4771, 
     Atom #  22: total charge =  13.5237, p =  5.9931, 
     Atom #  22: total charge =  13.5237, d =  5.0535, 
           1           1   1.8113926759471239        4.3203232162112766        0.0000000000000000     
     Atom #  23: total charge =   6.1317, s =  1.8114, 
     Atom #  23: total charge =   6.1317, p =  4.3203, 
     Atom #  23: total charge =   6.1317, d =  0.0000, 
           1           1   1.6783703998418229        4.5045019524406458        0.0000000000000000     
     Atom #  24: total charge =   6.1829, s =  1.6784, 
     Atom #  24: total charge =   6.1829, p =  4.5045, 
     Atom #  24: total charge =   6.1829, d =  0.0000, 
           1           1   2.4730285462449926        5.9934431445414331        5.1472846656836220     
     Atom #  25: total charge =  13.6138, s =  2.4730, 
     Atom #  25: total charge =  13.6138, p =  5.9934, 
     Atom #  25: total charge =  13.6138, d =  5.1473, 
           1           1   1.8094633300190521        4.3312929633573534        0.0000000000000000     
     Atom #  26: total charge =   6.1408, s =  1.8095, 
     Atom #  26: total charge =   6.1408, p =  4.3313, 
     Atom #  26: total charge =   6.1408, d =  0.0000, 
           1           1   1.6781692342919297        4.5086264597623886        0.0000000000000000     
     Atom #  27: total charge =   6.1868, s =  1.6782, 
     Atom #  27: total charge =   6.1868, p =  4.5086, 
     Atom #  27: total charge =   6.1868, d =  0.0000, 
           1           1   2.4801027600972367        5.9929459147924726        5.0428696187925857     
     Atom #  28: total charge =  13.5159, s =  2.4801, 
     Atom #  28: total charge =  13.5159, p =  5.9929, 
     Atom #  28: total charge =  13.5159, d =  5.0429, 
           1           1   1.8082979570941744        4.3192467314746681        0.0000000000000000     
     Atom #  29: total charge =   6.1275, s =  1.8083, 
     Atom #  29: total charge =   6.1275, p =  4.3192, 
     Atom #  29: total charge =   6.1275, d =  0.0000, 
           1           1   1.6726689204681204        4.5682549193240485        0.0000000000000000     
     Atom #  30: total charge =   6.2409, s =  1.6727, 
     Atom #  30: total charge =   6.2409, p =  4.5683, 
     Atom #  30: total charge =   6.2409, d =  0.0000, 
     Spilling Parameter:   0.0135

     PROJWFC      :  10m 4.97s CPU  14m26.71s WALL


   This run was terminated on:  19:23:49  25Aug2020            

=------------------------------------------------------------------------------=
   JOB DONE.
=------------------------------------------------------------------------------=
