
     Program PWSCF v.6.4 starts on 25Aug2020 at 13: 8:17 

     This program is part of the open-source Quantum ESPRESSO suite
     for quantum simulation of materials; please cite
         "P. Giannozzi et al., J. Phys.:Condens. Matter 21 395502 (2009);
         "P. Giannozzi et al., J. Phys.:Condens. Matter 29 465901 (2017);
          URL http://www.quantum-espresso.org", 
     in publications or presentations arising from this work. More details at
     http://www.quantum-espresso.org/quote

     Parallel version (MPI), running on    48 processors

     MPI processes distributed on     1 nodes
     R & G space division:  proc/nbgrp/npool/nimage =      48
     Waiting for input...
     Reading input from standard input

     Current dimensions of program PWSCF are:
     Max number of different atomic species (ntypx) = 10
     Max number of k-points (npk) =  40000
     Max angular momentum in pseudopotentials (lmaxx) =  3
               file Ca.pbe-spn-kjpaw_psl.1.0.0.UPF: wavefunction(s)  3S renormalized
               file N.pbe-n-kjpaw_psl.1.0.0.UPF: wavefunction(s)  2S renormalized
               file Mo.pbe-spn-kjpaw_psl.1.0.0.UPF: wavefunction(s)  4S 4D renormalized
               file S.pbe-n-kjpaw_psl.1.0.0.UPF: wavefunction(s)  3S 3P renormalized

     Subspace diagonalization in iterative solution of the eigenvalue problem:
     one sub-group per band group will be used
     scalapack distributed-memory algorithm (size of sub-group:  4*  4 procs)


     Parallelization info
     --------------------
     sticks:   dense  smooth     PW     G-vecs:    dense   smooth      PW
     Min         165      99     26                65741    30555    4282
     Max         167     100     27                65753    30588    4327
     Sum        7951    4753   1285              3155893  1466945  206833



     bravais-lattice index     =            0
     lattice parameter (alat)  =      12.0089  a.u.
     unit-cell volume          =    8260.4127 (a.u.)^3
     number of atoms/cell      =           30
     number of atomic types    =            4
     number of electrons       =       254.00
     number of Kohn-Sham states=          190
     kinetic-energy cutoff     =     120.0000  Ry
     charge density cutoff     =     800.0000  Ry
     convergence threshold     =      1.0E-08
     mixing beta               =       0.7000
     number of iterations used =            8  plain     mixing
     Exchange-correlation      = SLA PW PBX PBC ( 1  4  3  4 0 0)
     Using LIBXC version       =    4   2   3

     celldm(1)=  12.008870  celldm(2)=   0.000000  celldm(3)=   0.000000
     celldm(4)=   0.000000  celldm(5)=   0.000000  celldm(6)=   0.000000

     crystal axes: (cart. coord. in units of alat)
               a(1) = (   1.000000   0.000003   0.000000 )  
               a(2) = (  -0.499998   0.866024   0.000000 )  
               a(3) = (   0.000000   0.000000   5.507630 )  

     reciprocal axes: (cart. coord. in units 2 pi/alat)
               b(1) = (  0.999998  0.577348 -0.000000 )  
               b(2) = ( -0.000003  1.154701  0.000000 )  
               b(3) = (  0.000000 -0.000000  0.181566 )  


     PseudoPot. # 1 for Ca read from file:
     ../PP/Ca.pbe-spn-kjpaw_psl.1.0.0.UPF
     MD5 check sum: a200d3aff908b854ea32377ea4b2391f
     Pseudo is Projector augmented-wave + core cor, Zval = 10.0
     Generated using "atomic" code by A. Dal Corso v.6.4.1
     Shape of augmentation charge: PSQ
     Using radial grid of 1169 points,  6 beta functions with: 
                l(1) =   0
                l(2) =   0
                l(3) =   1
                l(4) =   1
                l(5) =   2
                l(6) =   2
     Q(r) pseudized with 0 coefficients 


     PseudoPot. # 2 for N  read from file:
     ../PP/N.pbe-n-kjpaw_psl.1.0.0.UPF
     MD5 check sum: 14c48229446f9f2d411169a3abcbc3fa
     Pseudo is Projector augmented-wave + core cor, Zval =  5.0
     Generated using "atomic" code by A. Dal Corso v.6.3
     Shape of augmentation charge: PSQ
     Using radial grid of 1085 points,  4 beta functions with: 
                l(1) =   0
                l(2) =   0
                l(3) =   1
                l(4) =   1
     Q(r) pseudized with 0 coefficients 


     PseudoPot. # 3 for Mo read from file:
     ../PP/Mo.pbe-spn-kjpaw_psl.1.0.0.UPF
     MD5 check sum: 4396e0c640fcce5c25f020efccf1ab12
     Pseudo is Projector augmented-wave + core cor, Zval = 14.0
     Generated using "atomic" code by A. Dal Corso v.6.3
     Shape of augmentation charge: PSQ
     Using radial grid of 1229 points,  6 beta functions with: 
                l(1) =   0
                l(2) =   0
                l(3) =   1
                l(4) =   1
                l(5) =   2
                l(6) =   2
     Q(r) pseudized with 0 coefficients 


     PseudoPot. # 4 for S  read from file:
     ../PP/S.pbe-n-kjpaw_psl.1.0.0.UPF
     MD5 check sum: fb45dfebcf3e72a4e1bd4a866ec2e262
     Pseudo is Projector augmented-wave + core cor, Zval =  6.0
     Generated using "atomic" code by A. Dal Corso v.6.3
     Shape of augmentation charge: PSQ
     Using radial grid of 1151 points,  6 beta functions with: 
                l(1) =   0
                l(2) =   0
                l(3) =   1
                l(4) =   1
                l(5) =   2
                l(6) =   2
     Q(r) pseudized with 0 coefficients 


     atomic species   valence    mass     pseudopotential
        Ca            10.00    40.07800     Ca( 1.00)
        N              5.00    14.00670     N ( 1.00)
        Mo            14.00    95.96000     Mo( 1.00)
        S              6.00    32.06500     S ( 1.00)

     No symmetry found


                                    s                        frac. trans.

      isym =  1     identity                                     

 cryst.   s( 1) = (     1          0          0      )
                  (     0          1          0      )
                  (     0          0          1      )

 cart.    s( 1) = (  1.0000000 -0.0000000  0.0000000 )
                  ( -0.0000000  1.0000000  0.0000000 )
                  (  0.0000000  0.0000000  1.0000000 )


   Cartesian axes

     site n.     atom                  positions (alat units)
         1           Ca  tau(   1) = (  -0.0684594  -0.0138782   1.2143751  )
         2           Ca  tau(   2) = (   0.5946996  -0.0072238   1.5899258  )
         3           Ca  tau(   3) = (  -0.4052490   0.5701131   1.5947688  )
         4           Ca  tau(   4) = (  -0.0794912   0.5703864   1.2142638  )
         5           Ca  tau(   5) = (   0.0946773   0.2814624   1.5897385  )
         6           Ca  tau(   6) = (   0.4319025   0.2878288   1.2143175  )
         7           N   tau(   7) = (  -0.2382024   0.2807521   1.4017775  )
         8           N   tau(   8) = (   0.2616976  -0.0064621   1.4018238  )
         9           N   tau(   9) = (   0.2604611   0.5700710   1.4018150  )
        10           Ca  tau(  10) = (  -0.0698134  -0.0069382   2.4868893  )
        11           Ca  tau(  11) = (  -0.2365079   0.2815574   2.1058112  )
        12           Ca  tau(  12) = (   0.2634854  -0.0067143   2.1058033  )
        13           Ca  tau(  13) = (  -0.0699112   0.5704631   2.4868952  )
        14           Ca  tau(  14) = (   0.2631407   0.5704543   2.1058479  )
        15           Ca  tau(  15) = (   0.4301821   0.2818246   2.4868976  )
        16           N   tau(  16) = (   0.0968157   0.2817780   2.3142347  )
        17           N   tau(  17) = (  -0.4031965   0.5704659   2.3144150  )
        18           N   tau(  18) = (   0.5968343  -0.0069112   2.3142188  )
        19           Mo  tau(  19) = (   0.0950295   0.2810386   0.5849413  )
        20           S   tau(  20) = (   0.3481488   0.1314094   0.3460933  )
        21           S   tau(  21) = (   0.3433019   0.1291227   0.8248640  )
        22           Mo  tau(  22) = (   0.5907778   0.3031738   0.5885153  )
        23           S   tau(  23) = (   0.8388586   0.1366726   0.3460930  )
        24           S   tau(  24) = (   0.8393043   0.1420277   0.8247952  )
        25           Mo  tau(  25) = (  -0.1720167   0.6993494   0.5885117  )
        26           S   tau(  26) = (   0.0980336   0.5750559   0.3460730  )
        27           S   tau(  27) = (   0.1024533   0.5719880   0.8248479  )
        28           Mo  tau(  28) = (   0.3662497   0.7066761   0.5884975  )
        29           S   tau(  29) = (   0.5949968   0.5697320   0.3215379  )
        30           S   tau(  30) = (   0.5949515   0.5697870   0.8651252  )

   Crystallographic axes

     site n.     atom                  positions (cryst. coord.)
         1           Ca  tau(   1) = ( -0.0764719 -0.0160249  0.2204896  )
         2           Ca  tau(   2) = (  0.5905280 -0.0083432  0.2886769  )
         3           Ca  tau(   3) = ( -0.0760949  0.6583112  0.2895563  )
         4           Ca  tau(   4) = (  0.2498202  0.6586258  0.2204694  )
         5           Ca  tau(   5) = (  0.2571788  0.3250046  0.2886429  )
         6           Ca  tau(   6) = (  0.5980792  0.3323548  0.2204791  )
         7           N   tau(   7) = ( -0.0761104  0.3241855  0.2545156  )
         8           N   tau(   8) = (  0.2579663 -0.0074626  0.2545240  )
         9           N   tau(   9) = (  0.5895900  0.6582607  0.2545224  )
        10           Ca  tau(  10) = ( -0.0738191 -0.0080114  0.4515353  )
        11           Ca  tau(  11) = ( -0.0739510  0.3251152  0.3823443  )
        12           Ca  tau(  12) = (  0.2596086 -0.0077538  0.3823429  )
        13           Ca  tau(  13) = (  0.2594445  0.6587144  0.4515363  )
        14           Ca  tau(  14) = (  0.5924908  0.6587032  0.3823510  )
        15           Ca  tau(  15) = (  0.5928922  0.3254217  0.4515368  )
        16           N   tau(  16) = (  0.2594994  0.3253689  0.4201870  )
        17           N   tau(  17) = ( -0.0738387  0.6587186  0.4202198  )
        18           N   tau(  18) = (  0.5928432 -0.0079823  0.4201841  )
        19           Mo  tau(  19) = (  0.2572863  0.3245152  0.1062056  )
        20           S   tau(  20) = (  0.4240171  0.1517374  0.0628389  )
        21           S   tau(  21) = (  0.4178501  0.1490970  0.1497675  )
        22           Mo  tau(  22) = (  0.7658136  0.3500732  0.1068545  )
        23           S   tau(  23) = (  0.9177649  0.1578134  0.0628388  )
        24           S   tau(  24) = (  0.9213024  0.1639969  0.1497550  )
        25           Mo  tau(  25) = (  0.2317514  0.8075398  0.1068539  )
        26           S   tau(  26) = (  0.4300407  0.6640173  0.0628352  )
        27           S   tau(  27) = (  0.4326892  0.6604747  0.1497646  )
        28           Mo  tau(  28) = (  0.7742470  0.8159983  0.1068513  )
        29           S   tau(  29) = (  0.9239293  0.6578681  0.0583804  )
        30           S   tau(  30) = (  0.9239158  0.6579317  0.1570776  )

     number of k points=    25  gaussian smearing, width (Ry)=  0.0010
                       cart. coord. in units 2pi/alat
        k(    1) = (   0.0000000   0.0000000   0.0000000), wk =   0.0408163
        k(    2) = (  -0.0000004   0.1649573   0.0000000), wk =   0.0816327
        k(    3) = (  -0.0000009   0.3299145   0.0000000), wk =   0.0816327
        k(    4) = (  -0.0000013   0.4948718   0.0000000), wk =   0.0816327
        k(    5) = (   0.1428569   0.0824782   0.0000000), wk =   0.0816327
        k(    6) = (   0.1428565   0.2474355   0.0000000), wk =   0.0816327
        k(    7) = (   0.1428560   0.4123928   0.0000000), wk =   0.0816327
        k(    8) = (   0.1428556   0.5773500   0.0000000), wk =   0.0816327
        k(    9) = (   0.1428582  -0.4123935   0.0000000), wk =   0.0816327
        k(   10) = (   0.1428578  -0.2474363   0.0000000), wk =   0.0816327
        k(   11) = (   0.1428574  -0.0824790   0.0000000), wk =   0.0816327
        k(   12) = (   0.2857138   0.1649565   0.0000000), wk =   0.0816327
        k(   13) = (   0.2857134   0.3299138   0.0000000), wk =   0.0816327
        k(   14) = (   0.2857130   0.4948710   0.0000000), wk =   0.0816327
        k(   15) = (   0.2857125   0.6598283   0.0000000), wk =   0.0816327
        k(   16) = (   0.2857152  -0.3299153   0.0000000), wk =   0.0816327
        k(   17) = (   0.2857147  -0.1649580   0.0000000), wk =   0.0816327
        k(   18) = (   0.2857143  -0.0000008   0.0000000), wk =   0.0816327
        k(   19) = (   0.4285708   0.2474347   0.0000000), wk =   0.0816327
        k(   20) = (   0.4285703   0.4123920   0.0000000), wk =   0.0816327
        k(   21) = (   0.4285699   0.5773493   0.0000000), wk =   0.0816327
        k(   22) = (   0.4285695   0.7423065   0.0000000), wk =   0.0816327
        k(   23) = (   0.4285721  -0.2474370   0.0000000), wk =   0.0816327
        k(   24) = (   0.4285716  -0.0824798   0.0000000), wk =   0.0816327
        k(   25) = (   0.4285712   0.0824775   0.0000000), wk =   0.0816327

                       cryst. coord.
        k(    1) = (   0.0000000   0.0000000   0.0000000), wk =   0.0408163
        k(    2) = (  -0.0000000   0.1428571   0.0000000), wk =   0.0816327
        k(    3) = (  -0.0000000   0.2857143   0.0000000), wk =   0.0816327
        k(    4) = (  -0.0000000   0.4285714   0.0000000), wk =   0.0816327
        k(    5) = (   0.1428571  -0.0000000   0.0000000), wk =   0.0816327
        k(    6) = (   0.1428571   0.1428571   0.0000000), wk =   0.0816327
        k(    7) = (   0.1428571   0.2857143   0.0000000), wk =   0.0816327
        k(    8) = (   0.1428571   0.4285714   0.0000000), wk =   0.0816327
        k(    9) = (   0.1428571  -0.4285714   0.0000000), wk =   0.0816327
        k(   10) = (   0.1428571  -0.2857143   0.0000000), wk =   0.0816327
        k(   11) = (   0.1428571  -0.1428571   0.0000000), wk =   0.0816327
        k(   12) = (   0.2857143  -0.0000000   0.0000000), wk =   0.0816327
        k(   13) = (   0.2857143   0.1428571   0.0000000), wk =   0.0816327
        k(   14) = (   0.2857143   0.2857143   0.0000000), wk =   0.0816327
        k(   15) = (   0.2857143   0.4285714   0.0000000), wk =   0.0816327
        k(   16) = (   0.2857143  -0.4285714   0.0000000), wk =   0.0816327
        k(   17) = (   0.2857143  -0.2857143   0.0000000), wk =   0.0816327
        k(   18) = (   0.2857143  -0.1428571   0.0000000), wk =   0.0816327
        k(   19) = (   0.4285714  -0.0000000   0.0000000), wk =   0.0816327
        k(   20) = (   0.4285714   0.1428571   0.0000000), wk =   0.0816327
        k(   21) = (   0.4285714   0.2857143   0.0000000), wk =   0.0816327
        k(   22) = (   0.4285714   0.4285714   0.0000000), wk =   0.0816327
        k(   23) = (   0.4285714  -0.4285714   0.0000000), wk =   0.0816327
        k(   24) = (   0.4285714  -0.2857143   0.0000000), wk =   0.0816327
        k(   25) = (   0.4285714  -0.1428571   0.0000000), wk =   0.0816327

     Dense  grid:  3155893 G-vectors     FFT dimensions: ( 120, 120, 600)

     Smooth grid:  1466945 G-vectors     FFT dimensions: (  90,  90, 480)

     Dynamical RAM for                 wfc:      11.07 MB

     Dynamical RAM for     wfc (w. buffer):     287.95 MB

     Dynamical RAM for           str. fact:       4.01 MB

     Dynamical RAM for           local pot:       0.00 MB

     Dynamical RAM for          nlocal pot:      27.98 MB

     Dynamical RAM for                qrad:      17.33 MB

     Dynamical RAM for          rho,v,vnew:      14.59 MB

     Dynamical RAM for               rhoin:       4.86 MB

     Dynamical RAM for            rho*nmix:      32.10 MB

     Dynamical RAM for           G-vectors:       4.00 MB

     Dynamical RAM for          h,s,v(r/c):       1.65 MB

     Dynamical RAM for          <psi|beta>:       1.39 MB

     Dynamical RAM for                 psi:      44.30 MB

     Dynamical RAM for                hpsi:      44.30 MB

     Dynamical RAM for                spsi:      44.30 MB

     Dynamical RAM for      wfcinit/wfcrot:      23.23 MB

     Dynamical RAM for           addusdens:     198.63 MB

     Dynamical RAM for          addusforce:     275.48 MB

     Dynamical RAM for         addusstress:     201.63 MB

     Estimated static dynamical RAM per process >     404.97 MB

     Estimated max dynamical RAM per process >     680.46 MB

     Estimated total dynamical RAM >      31.90 GB

     Initial potential from superposition of free atoms

     starting charge  253.93792, renormalised to  254.00000

     negative rho (up, down):  5.443E-04 0.000E+00
     Starting wfcs are  192 randomized atomic wfcs
     Checking if some PAW data can be deallocated... 
       PAW data deallocated on   24 nodes for type:  1
       PAW data deallocated on   36 nodes for type:  2
       PAW data deallocated on   44 nodes for type:  3
       PAW data deallocated on   40 nodes for type:  4

     total cpu time spent up to now is       90.0 secs

     Self-consistent Calculation

     iteration #  1     ecut=   120.00 Ry     beta= 0.70
     Davidson diagonalization with overlap
     ethr =  1.00E-02,  avg # of iterations =  8.5

     negative rho (up, down):  3.478E-06 0.000E+00

     total cpu time spent up to now is      345.2 secs

     total energy              =   -3752.60064638 Ry
     Harris-Foulkes estimate   =   -3761.47822737 Ry
     estimated scf accuracy    <      10.86045629 Ry

     iteration #  2     ecut=   120.00 Ry     beta= 0.70
     Davidson diagonalization with overlap
     ethr =  4.28E-03,  avg # of iterations =  7.0

     negative rho (up, down):  1.147E-05 0.000E+00

     total cpu time spent up to now is      606.6 secs

     total energy              =   -3699.59920215 Ry
     Harris-Foulkes estimate   =   -3828.78579990 Ry
     estimated scf accuracy    <    2384.45054209 Ry

     iteration #  3     ecut=   120.00 Ry     beta= 0.70
     Davidson diagonalization with overlap
     ethr =  4.28E-03,  avg # of iterations = 10.1

     total cpu time spent up to now is      942.1 secs

     total energy              =   -3696.17366243 Ry
     Harris-Foulkes estimate   =   -3806.28439792 Ry
     estimated scf accuracy    <    5054.11174577 Ry

     iteration #  4     ecut=   120.00 Ry     beta= 0.70
     Davidson diagonalization with overlap
     ethr =  4.28E-03,  avg # of iterations =  6.1

     total cpu time spent up to now is     1205.2 secs

     total energy              =   -3734.37300832 Ry
     Harris-Foulkes estimate   =   -3777.52203802 Ry
     estimated scf accuracy    <     786.35204359 Ry

     iteration #  5     ecut=   120.00 Ry     beta= 0.70
     Davidson diagonalization with overlap
     ethr =  4.28E-03,  avg # of iterations =  5.2

     total cpu time spent up to now is     1417.5 secs

     total energy              =   -3758.55931519 Ry
     Harris-Foulkes estimate   =   -3760.59261085 Ry
     estimated scf accuracy    <       9.74528885 Ry

     iteration #  6     ecut=   120.00 Ry     beta= 0.70
     Davidson diagonalization with overlap
     ethr =  3.84E-03,  avg # of iterations =  1.6

     total cpu time spent up to now is     1572.3 secs

     total energy              =   -3759.33820420 Ry
     Harris-Foulkes estimate   =   -3759.99872503 Ry
     estimated scf accuracy    <      11.02312752 Ry

     iteration #  7     ecut=   120.00 Ry     beta= 0.70
     Davidson diagonalization with overlap
     ethr =  3.84E-03,  avg # of iterations =  1.0

     total cpu time spent up to now is     1725.7 secs

     total energy              =   -3759.41723033 Ry
     Harris-Foulkes estimate   =   -3759.77758962 Ry
     estimated scf accuracy    <       2.30178223 Ry

     iteration #  8     ecut=   120.00 Ry     beta= 0.70
     Davidson diagonalization with overlap
     ethr =  9.06E-04,  avg # of iterations =  2.2

     total cpu time spent up to now is     1883.6 secs

     total energy              =   -3759.51342547 Ry
     Harris-Foulkes estimate   =   -3759.65732006 Ry
     estimated scf accuracy    <       3.74404155 Ry

     iteration #  9     ecut=   120.00 Ry     beta= 0.70
     Davidson diagonalization with overlap
     ethr =  9.06E-04,  avg # of iterations =  1.1

     total cpu time spent up to now is     2037.5 secs

     total energy              =   -3759.43679509 Ry
     Harris-Foulkes estimate   =   -3759.55924837 Ry
     estimated scf accuracy    <       2.23073491 Ry

     iteration # 10     ecut=   120.00 Ry     beta= 0.70
     Davidson diagonalization with overlap
     ethr =  8.78E-04,  avg # of iterations =  1.0

     total cpu time spent up to now is     2192.4 secs

     total energy              =   -3759.35920202 Ry
     Harris-Foulkes estimate   =   -3759.48219135 Ry
     estimated scf accuracy    <       2.13807355 Ry

     iteration # 11     ecut=   120.00 Ry     beta= 0.70
     Davidson diagonalization with overlap
     ethr =  8.42E-04,  avg # of iterations =  1.0

     total cpu time spent up to now is     2345.6 secs

     total energy              =   -3759.28235495 Ry
     Harris-Foulkes estimate   =   -3759.40287606 Ry
     estimated scf accuracy    <       1.14936721 Ry

     iteration # 12     ecut=   120.00 Ry     beta= 0.70
     Davidson diagonalization with overlap
     ethr =  4.53E-04,  avg # of iterations =  9.5

     total cpu time spent up to now is     2559.3 secs

     total energy              =   -3759.23687414 Ry
     Harris-Foulkes estimate   =   -3759.36658227 Ry
     estimated scf accuracy    <       0.27804263 Ry

     iteration # 13     ecut=   120.00 Ry     beta= 0.70
     Davidson diagonalization with overlap
     ethr =  1.09E-04,  avg # of iterations =  9.0

     total cpu time spent up to now is     2911.7 secs

     total energy              =   -3758.89400951 Ry
     Harris-Foulkes estimate   =   -3759.74842034 Ry
     estimated scf accuracy    <      16.31019625 Ry

     iteration # 14     ecut=   120.00 Ry     beta= 0.70
     Davidson diagonalization with overlap
     ethr =  1.09E-04,  avg # of iterations =  8.2

     total cpu time spent up to now is     3127.0 secs

     total energy              =   -3759.30862564 Ry
     Harris-Foulkes estimate   =   -3759.35048535 Ry
     estimated scf accuracy    <       0.21663264 Ry

     iteration # 15     ecut=   120.00 Ry     beta= 0.70
     Davidson diagonalization with overlap
     c_bands:  1 eigenvalues not converged
     c_bands:  4 eigenvalues not converged
     c_bands:  4 eigenvalues not converged
     c_bands:  1 eigenvalues not converged
     c_bands:  3 eigenvalues not converged
     ethr =  8.53E-05,  avg # of iterations = 16.9

     negative rho (up, down):  5.305E-07 0.000E+00

     total cpu time spent up to now is     3336.7 secs

     total energy              =   -3759.33137222 Ry
     Harris-Foulkes estimate   =   -3759.34322201 Ry
     estimated scf accuracy    <       0.07545804 Ry

     iteration # 16     ecut=   120.00 Ry     beta= 0.70
     Davidson diagonalization with overlap
     ethr =  2.97E-05,  avg # of iterations = 13.0

     negative rho (up, down):  1.007E-06 0.000E+00

     total cpu time spent up to now is     3533.8 secs

     total energy              =   -3759.33152330 Ry
     Harris-Foulkes estimate   =   -3759.34002375 Ry
     estimated scf accuracy    <       0.05393383 Ry

     iteration # 17     ecut=   120.00 Ry     beta= 0.70
     Davidson diagonalization with overlap
     ethr =  2.12E-05,  avg # of iterations =  1.8

     negative rho (up, down):  4.804E-06 0.000E+00

     total cpu time spent up to now is     3690.7 secs

     total energy              =   -3759.33550635 Ry
     Harris-Foulkes estimate   =   -3759.33707469 Ry
     estimated scf accuracy    <       0.00979194 Ry

     iteration # 18     ecut=   120.00 Ry     beta= 0.70
     Davidson diagonalization with overlap
     ethr =  3.86E-06,  avg # of iterations = 12.2

     negative rho (up, down):  2.644E-05 0.000E+00

     total cpu time spent up to now is     3898.9 secs

     total energy              =   -3759.33580031 Ry
     Harris-Foulkes estimate   =   -3759.33768258 Ry
     estimated scf accuracy    <       0.01327578 Ry

     iteration # 19     ecut=   120.00 Ry     beta= 0.70
     Davidson diagonalization with overlap
     c_bands:  1 eigenvalues not converged
     c_bands:  1 eigenvalues not converged
     c_bands:  1 eigenvalues not converged
     c_bands:  1 eigenvalues not converged
     c_bands:  1 eigenvalues not converged
     c_bands:  1 eigenvalues not converged
     ethr =  3.86E-06,  avg # of iterations =  9.8

     negative rho (up, down):  6.486E-05 0.000E+00

     total cpu time spent up to now is     4077.7 secs

     total energy              =   -3759.33634326 Ry
     Harris-Foulkes estimate   =   -3759.33651903 Ry
     estimated scf accuracy    <       0.00239883 Ry

     iteration # 20     ecut=   120.00 Ry     beta= 0.70
     Davidson diagonalization with overlap
     c_bands:  1 eigenvalues not converged
     c_bands:  1 eigenvalues not converged
     ethr =  9.44E-07,  avg # of iterations = 13.0

     negative rho (up, down):  7.684E-05 0.000E+00

     total cpu time spent up to now is     4271.4 secs

     total energy              =   -3759.33642267 Ry
     Harris-Foulkes estimate   =   -3759.33661711 Ry
     estimated scf accuracy    <       0.00792832 Ry

     iteration # 21     ecut=   120.00 Ry     beta= 0.70
     Davidson diagonalization with overlap
     ethr =  9.44E-07,  avg # of iterations =  1.0

     negative rho (up, down):  5.979E-05 0.000E+00

     total cpu time spent up to now is     4426.0 secs

     total energy              =   -3759.33647902 Ry
     Harris-Foulkes estimate   =   -3759.33652756 Ry
     estimated scf accuracy    <       0.00058733 Ry

     iteration # 22     ecut=   120.00 Ry     beta= 0.70
     Davidson diagonalization with overlap
     ethr =  2.31E-07,  avg # of iterations =  3.0

     negative rho (up, down):  8.719E-05 0.000E+00

     total cpu time spent up to now is     4587.9 secs

     total energy              =   -3759.33650927 Ry
     Harris-Foulkes estimate   =   -3759.33653342 Ry
     estimated scf accuracy    <       0.00080355 Ry

     iteration # 23     ecut=   120.00 Ry     beta= 0.70
     Davidson diagonalization with overlap
     ethr =  2.31E-07,  avg # of iterations =  1.0

     negative rho (up, down):  7.728E-05 0.000E+00

     total cpu time spent up to now is     4741.4 secs

     total energy              =   -3759.33652061 Ry
     Harris-Foulkes estimate   =   -3759.33652289 Ry
     estimated scf accuracy    <       0.00003591 Ry

     iteration # 24     ecut=   120.00 Ry     beta= 0.70
     Davidson diagonalization with overlap
     ethr =  1.41E-08,  avg # of iterations =  3.9

     negative rho (up, down):  9.020E-05 0.000E+00

     total cpu time spent up to now is     4910.0 secs

     total energy              =   -3759.33652365 Ry
     Harris-Foulkes estimate   =   -3759.33652698 Ry
     estimated scf accuracy    <       0.00022459 Ry

     iteration # 25     ecut=   120.00 Ry     beta= 0.70
     Davidson diagonalization with overlap
     ethr =  1.41E-08,  avg # of iterations =  1.0

     negative rho (up, down):  9.182E-05 0.000E+00

     total cpu time spent up to now is     5063.7 secs

     total energy              =   -3759.33652358 Ry
     Harris-Foulkes estimate   =   -3759.33652518 Ry
     estimated scf accuracy    <       0.00006712 Ry

     iteration # 26     ecut=   120.00 Ry     beta= 0.70
     Davidson diagonalization with overlap
     ethr =  1.41E-08,  avg # of iterations =  1.0

     negative rho (up, down):  9.530E-05 0.000E+00

     total cpu time spent up to now is     5217.7 secs

     total energy              =   -3759.33652363 Ry
     Harris-Foulkes estimate   =   -3759.33652444 Ry
     estimated scf accuracy    <       0.00005096 Ry

     iteration # 27     ecut=   120.00 Ry     beta= 0.70
     Davidson diagonalization with overlap
     ethr =  1.41E-08,  avg # of iterations =  1.0

     negative rho (up, down):  9.705E-05 0.000E+00

     total cpu time spent up to now is     5373.2 secs

     total energy              =   -3759.33652383 Ry
     Harris-Foulkes estimate   =   -3759.33652405 Ry
     estimated scf accuracy    <       0.00000657 Ry

     iteration # 28     ecut=   120.00 Ry     beta= 0.70
     Davidson diagonalization with overlap
     ethr =  2.59E-09,  avg # of iterations =  1.0

     negative rho (up, down):  9.613E-05 0.000E+00

     total cpu time spent up to now is     5526.8 secs

     total energy              =   -3759.33652396 Ry
     Harris-Foulkes estimate   =   -3759.33652398 Ry
     estimated scf accuracy    <       0.00000007 Ry

     iteration # 29     ecut=   120.00 Ry     beta= 0.70
     Davidson diagonalization with overlap
     ethr =  2.63E-11,  avg # of iterations =  4.0

     negative rho (up, down):  9.617E-05 0.000E+00

     total cpu time spent up to now is     5740.2 secs

     total energy              =   -3759.33652401 Ry
     Harris-Foulkes estimate   =   -3759.33652405 Ry
     estimated scf accuracy    <       0.00000025 Ry

     iteration # 30     ecut=   120.00 Ry     beta= 0.70
     Davidson diagonalization with overlap
     ethr =  2.63E-11,  avg # of iterations =  3.0

     negative rho (up, down):  9.633E-05 0.000E+00

     total cpu time spent up to now is     5907.3 secs

     total energy              =   -3759.33652400 Ry
     Harris-Foulkes estimate   =   -3759.33652404 Ry
     estimated scf accuracy    <       0.00000015 Ry

     iteration # 31     ecut=   120.00 Ry     beta= 0.70
     Davidson diagonalization with overlap
     ethr =  2.63E-11,  avg # of iterations =  2.2

     negative rho (up, down):  9.625E-05 0.000E+00

     total cpu time spent up to now is     6068.5 secs

     total energy              =   -3759.33652402 Ry
     Harris-Foulkes estimate   =   -3759.33652403 Ry
     estimated scf accuracy    <       0.00000006 Ry

     iteration # 32     ecut=   120.00 Ry     beta= 0.70
     Davidson diagonalization with overlap
     ethr =  2.23E-11,  avg # of iterations =  2.0

     negative rho (up, down):  9.624E-05 0.000E+00

     total cpu time spent up to now is     6225.2 secs

     total energy              =   -3759.33652402 Ry
     Harris-Foulkes estimate   =   -3759.33652403 Ry
     estimated scf accuracy    <       0.00000002 Ry

     iteration # 33     ecut=   120.00 Ry     beta= 0.70
     Davidson diagonalization with overlap
     ethr =  6.40E-12,  avg # of iterations =  3.0

     negative rho (up, down):  9.623E-05 0.000E+00

     total cpu time spent up to now is     6386.5 secs

     total energy              =   -3759.33652402 Ry
     Harris-Foulkes estimate   =   -3759.33652403 Ry
     estimated scf accuracy    <       0.00000002 Ry

     iteration # 34     ecut=   120.00 Ry     beta= 0.70
     Davidson diagonalization with overlap
     ethr =  6.40E-12,  avg # of iterations =  1.0

     negative rho (up, down):  9.619E-05 0.000E+00

     total cpu time spent up to now is     6539.9 secs

     End of self-consistent calculation

          k = 0.0000 0.0000 0.0000 (183231 PWs)   bands (ev):

   -59.6861 -59.5519 -59.5110 -59.5108 -38.3073 -38.2625 -38.2619 -38.1971
   -38.1863 -38.1858 -37.7517 -37.6436 -37.5994 -37.5988 -37.5834 -37.5765
   -33.9737 -33.9737 -33.8425 -33.7885 -33.7193 -33.6707 -33.6706 -33.6529
   -33.6529 -33.5890 -33.4130 -33.4129 -19.6297 -19.5283 -19.5277 -19.5171
   -19.5169 -19.4673 -19.4670 -19.2563 -19.2563 -19.2373 -19.2367 -19.2229
   -19.2226 -19.1971 -19.1674 -19.1671 -19.1183 -19.1183 -19.0728 -18.9710
   -18.9707 -18.9355 -18.9010 -18.9009 -18.8669 -18.6870 -18.6868 -18.6426
   -18.6130 -18.6126 -18.5921 -18.5920 -18.5832 -18.5611 -18.5295 -18.5293
   -13.1350 -11.7695 -11.4475 -11.4471 -11.3599 -10.7905 -10.7630 -10.7628
   -10.1336  -9.7974  -9.7955  -9.6069  -9.2833  -9.2832  -4.8921  -4.8288
    -4.8284  -4.6876  -3.8834  -3.8833  -3.8153  -3.2020  -3.2018  -2.8777
    -2.0126  -1.9818  -1.9814  -1.7856  -1.4243  -1.4242  -1.1398  -1.0212
    -0.9865  -0.9859  -0.3357  -0.2008  -0.2005  -0.1901  -0.0509  -0.0509
     0.0408   0.0409   0.0540   0.0544   0.2074   0.4637   0.4800   0.5066
     0.5071   0.5277   0.5281   0.5493   0.5562   0.6339   0.6346   0.9043
     1.0211   1.0213   1.0979   1.0980   1.1804   2.1004   3.1139   3.1139
     3.3643   3.3644   3.5963   3.6676   3.6679   3.7138   3.7141   3.8292
     3.8437   3.8872   3.9106   3.9107   3.9515   3.9519   4.2668   4.2669
     4.3912   4.4219   4.4228   4.5985   4.9711   4.9712   5.0453   5.0927
     5.2272   5.2274   5.2547   5.2699   5.5197   5.5287   5.5291   5.8664
     5.8674   5.9254   5.9690   5.9694   6.0758   6.2099   6.2111   6.2512
     6.4341   6.4345   6.5383   6.6232   6.6235   6.6288   6.6948   6.7686
     6.8799   6.8986   6.8987   7.0760   7.2869   7.2904   7.3246   7.4552
     7.4588   7.5433   7.5467   7.5496   7.6681   7.7513

     occupation numbers 
     1.0000   1.0000   1.0000   1.0000   1.0000   1.0000   1.0000   1.0000
     1.0000   1.0000   1.0000   1.0000   1.0000   1.0000   1.0000   1.0000
     1.0000   1.0000   1.0000   1.0000   1.0000   1.0000   1.0000   1.0000
     1.0000   1.0000   1.0000   1.0000   1.0000   1.0000   1.0000   1.0000
     1.0000   1.0000   1.0000   1.0000   1.0000   1.0000   1.0000   1.0000
     1.0000   1.0000   1.0000   1.0000   1.0000   1.0000   1.0000   1.0000
     1.0000   1.0000   1.0000   1.0000   1.0000   1.0000   1.0000   1.0000
     1.0000   1.0000   1.0000   1.0000   1.0000   1.0000   1.0000   1.0000
     1.0000   1.0000   1.0000   1.0000   1.0000   1.0000   1.0000   1.0000
     1.0000   1.0000   1.0000   1.0000   1.0000   1.0000   1.0000   1.0000
     1.0000   1.0000   1.0000   1.0000   1.0000   1.0000   1.0000   1.0000
     1.0000   1.0000   1.0000   1.0000   1.0000   1.0000   1.0000   1.0000
     1.0000   1.0000   1.0000   1.0000   1.0000   1.0000   1.0000   1.0000
     1.0000   1.0000   1.0000   1.0000   1.0000   1.0000   1.0000   1.0000
     1.0000   1.0000   1.0000   1.0000   1.0000   1.0000   1.0000   1.0000
     1.0000   1.0000   1.0000   1.0000   1.0000   1.0000   0.0000   0.0000
     0.0000   0.0000   0.0000   0.0000   0.0000   0.0000   0.0000   0.0000
     0.0000   0.0000   0.0000   0.0000   0.0000   0.0000   0.0000   0.0000
     0.0000   0.0000   0.0000   0.0000   0.0000   0.0000   0.0000   0.0000
     0.0000   0.0000   0.0000   0.0000   0.0000   0.0000   0.0000   0.0000
     0.0000   0.0000   0.0000   0.0000   0.0000   0.0000   0.0000   0.0000
     0.0000   0.0000   0.0000   0.0000   0.0000   0.0000   0.0000   0.0000
     0.0000   0.0000   0.0000   0.0000   0.0000   0.0000   0.0000   0.0000
     0.0000   0.0000   0.0000   0.0000   0.0000   0.0000

          k =-0.0000 0.1650 0.0000 (183264 PWs)   bands (ev):

   -59.6859 -59.5514 -59.5116 -59.5110 -38.3048 -38.2640 -38.2632 -38.1963
   -38.1866 -38.1861 -37.7510 -37.6423 -37.6028 -37.5999 -37.5817 -37.5757
   -33.9653 -33.9585 -33.8330 -33.7858 -33.7202 -33.6754 -33.6729 -33.6618
   -33.6565 -33.5913 -33.4258 -33.4154 -19.6251 -19.5639 -19.5618 -19.5043
   -19.4875 -19.4540 -19.4386 -19.2661 -19.2522 -19.2456 -19.2443 -19.2233
   -19.2183 -19.1885 -19.1657 -19.1649 -19.1310 -19.1199 -19.0698 -18.9946
   -18.9886 -18.9295 -18.9015 -18.8767 -18.8369 -18.6919 -18.6852 -18.6430
   -18.6325 -18.6182 -18.5929 -18.5901 -18.5666 -18.5610 -18.5402 -18.5293
   -13.0625 -11.7357 -11.5295 -11.4530 -11.3720 -10.8513 -10.7771 -10.7588
   -10.1106  -9.8068  -9.8036  -9.5849  -9.2930  -9.2905  -4.7840  -4.7398
    -4.7307  -4.5695  -3.8565  -3.8347  -3.7466  -3.1748  -3.1694  -2.8776
    -2.1001  -2.0607  -1.8914  -1.7072  -1.6071  -1.3727  -1.2108  -0.9939
    -0.9812  -0.9323  -0.4803  -0.4221  -0.3083  -0.2888  -0.2541  -0.2093
    -0.0747  -0.0105   0.1774   0.2335   0.2520   0.2910   0.3219   0.3535
     0.5144   0.5169   0.5187   0.5343   0.6834   0.7411   0.7665   0.8117
     1.0234   1.0315   1.0780   1.0890   1.3472   2.1817   2.9614   3.0321
     3.1724   3.2737   3.4724   3.5555   3.5866   3.6994   3.7465   3.7692
     3.8118   3.8532   3.8806   3.9510   3.9942   4.0598   4.2126   4.2955
     4.3579   4.4455   4.4979   4.7331   4.7742   4.8301   4.9119   5.0593
     5.0733   5.1361   5.1969   5.2340   5.4243   5.5678   5.5913   5.7106
     5.7955   5.9567   6.0008   6.0378   6.1209   6.2745   6.3160   6.4342
     6.4962   6.5494   6.6375   6.6529   6.6666   6.7019   6.7313   6.8512
     6.9703   6.9868   7.0384   7.1516   7.2517   7.4186   7.4744   7.5313
     7.5547   7.6466   7.6912   7.7380   7.7766   7.8127

     occupation numbers 
     1.0000   1.0000   1.0000   1.0000   1.0000   1.0000   1.0000   1.0000
     1.0000   1.0000   1.0000   1.0000   1.0000   1.0000   1.0000   1.0000
     1.0000   1.0000   1.0000   1.0000   1.0000   1.0000   1.0000   1.0000
     1.0000   1.0000   1.0000   1.0000   1.0000   1.0000   1.0000   1.0000
     1.0000   1.0000   1.0000   1.0000   1.0000   1.0000   1.0000   1.0000
     1.0000   1.0000   1.0000   1.0000   1.0000   1.0000   1.0000   1.0000
     1.0000   1.0000   1.0000   1.0000   1.0000   1.0000   1.0000   1.0000
     1.0000   1.0000   1.0000   1.0000   1.0000   1.0000   1.0000   1.0000
     1.0000   1.0000   1.0000   1.0000   1.0000   1.0000   1.0000   1.0000
     1.0000   1.0000   1.0000   1.0000   1.0000   1.0000   1.0000   1.0000
     1.0000   1.0000   1.0000   1.0000   1.0000   1.0000   1.0000   1.0000
     1.0000   1.0000   1.0000   1.0000   1.0000   1.0000   1.0000   1.0000
     1.0000   1.0000   1.0000   1.0000   1.0000   1.0000   1.0000   1.0000
     1.0000   1.0000   1.0000   1.0000   1.0000   1.0000   1.0000   1.0000
     1.0000   1.0000   1.0000   1.0000   1.0000   1.0000   1.0000   1.0000
     1.0000   1.0000   1.0000   1.0000   1.0000   1.0000   0.0000   0.0000
     0.0000   0.0000   0.0000   0.0000   0.0000   0.0000   0.0000   0.0000
     0.0000   0.0000   0.0000   0.0000   0.0000   0.0000   0.0000   0.0000
     0.0000   0.0000   0.0000   0.0000   0.0000   0.0000   0.0000   0.0000
     0.0000   0.0000   0.0000   0.0000   0.0000   0.0000   0.0000   0.0000
     0.0000   0.0000   0.0000   0.0000   0.0000   0.0000   0.0000   0.0000
     0.0000   0.0000   0.0000   0.0000   0.0000   0.0000   0.0000   0.0000
     0.0000   0.0000   0.0000   0.0000   0.0000   0.0000   0.0000   0.0000
     0.0000   0.0000   0.0000   0.0000   0.0000   0.0000

          k =-0.0000 0.3299 0.0000 (183392 PWs)   bands (ev):

   -59.6853 -59.5502 -59.5135 -59.5110 -38.2979 -38.2692 -38.2656 -38.1943
   -38.1874 -38.1866 -37.7496 -37.6385 -37.6103 -37.6020 -37.5791 -37.5739
   -33.9445 -33.9171 -33.8103 -33.7792 -33.7230 -33.7066 -33.6802 -33.6673
   -33.6658 -33.5943 -33.4577 -33.4208 -19.6135 -19.5968 -19.5838 -19.5174
   -19.4657 -19.4180 -19.3782 -19.3221 -19.2703 -19.2549 -19.2248 -19.2170
   -19.2058 -19.1921 -19.1590 -19.1585 -19.1508 -19.1269 -19.0652 -19.0200
   -19.0073 -18.9378 -18.8888 -18.8338 -18.7799 -18.7321 -18.6912 -18.6484
   -18.6414 -18.6302 -18.5887 -18.5822 -18.5656 -18.5553 -18.5498 -18.5326
   -12.8540 -11.7955 -11.6315 -11.4636 -11.3778 -11.0190 -10.7872 -10.7512
   -10.0498  -9.8395  -9.8191  -9.5267  -9.3249  -9.3052  -4.5541  -4.5057
    -4.4425  -4.2807  -3.8020  -3.7692  -3.5053  -3.1341  -3.0684  -2.8405
    -2.2302  -2.1864  -2.0475  -1.7762  -1.7074  -1.4175  -1.3083  -1.0987
    -1.0384  -0.7822  -0.7454  -0.7144  -0.5141  -0.4849  -0.3398  -0.3330
    -0.1761  -0.1143   0.0846   0.1152   0.1522   0.1876   0.2822   0.3597
     0.4582   0.4975   0.5132   0.5413   0.6208   0.7729   0.8363   0.9768
     0.9878   1.0377   1.0584   1.0809   1.6686   2.4030   2.6161   2.6882
     2.9050   3.0790   3.2602   3.3847   3.4229   3.5544   3.5903   3.6821
     3.7576   3.8038   3.8898   4.0321   4.0796   4.1344   4.2068   4.2512
     4.2796   4.3286   4.4072   4.4784   4.5952   4.6095   4.8219   4.9581
     5.1323   5.1528   5.1617   5.2312   5.3418   5.5676   5.7223   5.7704
     5.9689   6.0188   6.0608   6.1745   6.2222   6.2935   6.4121   6.4707
     6.5924   6.7069   6.7637   6.8301   6.9247   6.9433   7.0234   7.0613
     7.0982   7.2714   7.2935   7.3588   7.4138   7.5565   7.5854   7.6263
     7.7418   7.7546   7.7756   7.8423   7.9564   7.9990

     occupation numbers 
     1.0000   1.0000   1.0000   1.0000   1.0000   1.0000   1.0000   1.0000
     1.0000   1.0000   1.0000   1.0000   1.0000   1.0000   1.0000   1.0000
     1.0000   1.0000   1.0000   1.0000   1.0000   1.0000   1.0000   1.0000
     1.0000   1.0000   1.0000   1.0000   1.0000   1.0000   1.0000   1.0000
     1.0000   1.0000   1.0000   1.0000   1.0000   1.0000   1.0000   1.0000
     1.0000   1.0000   1.0000   1.0000   1.0000   1.0000   1.0000   1.0000
     1.0000   1.0000   1.0000   1.0000   1.0000   1.0000   1.0000   1.0000
     1.0000   1.0000   1.0000   1.0000   1.0000   1.0000   1.0000   1.0000
     1.0000   1.0000   1.0000   1.0000   1.0000   1.0000   1.0000   1.0000
     1.0000   1.0000   1.0000   1.0000   1.0000   1.0000   1.0000   1.0000
     1.0000   1.0000   1.0000   1.0000   1.0000   1.0000   1.0000   1.0000
     1.0000   1.0000   1.0000   1.0000   1.0000   1.0000   1.0000   1.0000
     1.0000   1.0000   1.0000   1.0000   1.0000   1.0000   1.0000   1.0000
     1.0000   1.0000   1.0000   1.0000   1.0000   1.0000   1.0000   1.0000
     1.0000   1.0000   1.0000   1.0000   1.0000   1.0000   1.0000   1.0000
     1.0000   1.0000   1.0000   1.0000   1.0000   1.0000   0.2158   0.0000
     0.0000   0.0000   0.0000   0.0000   0.0000   0.0000   0.0000   0.0000
     0.0000   0.0000   0.0000   0.0000   0.0000   0.0000   0.0000   0.0000
     0.0000   0.0000   0.0000   0.0000   0.0000   0.0000   0.0000   0.0000
     0.0000   0.0000   0.0000   0.0000   0.0000   0.0000   0.0000   0.0000
     0.0000   0.0000   0.0000   0.0000   0.0000   0.0000   0.0000   0.0000
     0.0000   0.0000   0.0000   0.0000   0.0000   0.0000   0.0000   0.0000
     0.0000   0.0000   0.0000   0.0000   0.0000   0.0000   0.0000   0.0000
     0.0000   0.0000   0.0000   0.0000   0.0000   0.0000

          k =-0.0000 0.4949 0.0000 (183390 PWs)   bands (ev):

   -59.6848 -59.5492 -59.5151 -59.5110 -38.2882 -38.2779 -38.2672 -38.1916
   -38.1891 -38.1870 -37.7485 -37.6332 -37.6181 -37.6035 -37.5776 -37.5725
   -33.9252 -33.8643 -33.7988 -33.7729 -33.7440 -33.7260 -33.6913 -33.6739
   -33.6670 -33.5949 -33.4872 -33.4253 -19.6151 -19.6010 -19.5925 -19.5279
   -19.4327 -19.3824 -19.3721 -19.3322 -19.3186 -19.2607 -19.2202 -19.2083
   -19.2066 -19.1854 -19.1628 -19.1507 -19.1465 -19.1400 -19.0650 -19.0327
   -19.0102 -18.9459 -18.8552 -18.8061 -18.7781 -18.7434 -18.7118 -18.6653
   -18.6453 -18.6216 -18.5958 -18.5718 -18.5684 -18.5548 -18.5420 -18.5387
   -12.5381 -12.1566 -11.5159 -11.4549 -11.3743 -11.2087 -10.7923 -10.7454
    -9.9713  -9.8963  -9.8308  -9.4515  -9.3796  -9.3164  -4.3471  -4.2406
    -4.1571  -4.0349  -3.7848  -3.6771  -3.2963  -3.0579  -2.8511  -2.7818
    -2.4476  -2.3804  -2.3059  -2.0500  -1.7760  -1.7056  -1.4777  -1.1680
    -1.0959  -0.7622  -0.6491  -0.6271  -0.5633  -0.4396  -0.4136  -0.3788
    -0.3498  -0.2478  -0.0404  -0.0280   0.1629   0.2122   0.2508   0.2566
     0.4724   0.5085   0.5254   0.5499   0.5732   0.6041   0.6562   1.0260
     1.0520   1.0646   1.1150   1.2146   1.9740   2.2591   2.2925   2.7538
     2.8194   2.9422   3.1286   3.1910   3.2415   3.3234   3.4442   3.6529
     3.7467   3.7755   3.8529   3.9371   3.9727   4.0215   4.0636   4.0793
     4.1667   4.2990   4.3322   4.4800   4.6060   4.7181   4.7703   4.9212
     5.1034   5.1384   5.1660   5.3044   5.4219   5.5438   5.8339   5.9279
     6.0359   6.0726   6.2196   6.3898   6.4267   6.4738   6.5465   6.6351
     6.6624   6.8334   6.8548   6.8809   6.9671   7.1910   7.2452   7.2582
     7.3739   7.4139   7.4678   7.4854   7.5297   7.5583   7.5798   7.6884
     7.7033   7.7998   7.8178   7.8866   7.9208   8.0174

     occupation numbers 
     1.0000   1.0000   1.0000   1.0000   1.0000   1.0000   1.0000   1.0000
     1.0000   1.0000   1.0000   1.0000   1.0000   1.0000   1.0000   1.0000
     1.0000   1.0000   1.0000   1.0000   1.0000   1.0000   1.0000   1.0000
     1.0000   1.0000   1.0000   1.0000   1.0000   1.0000   1.0000   1.0000
     1.0000   1.0000   1.0000   1.0000   1.0000   1.0000   1.0000   1.0000
     1.0000   1.0000   1.0000   1.0000   1.0000   1.0000   1.0000   1.0000
     1.0000   1.0000   1.0000   1.0000   1.0000   1.0000   1.0000   1.0000
     1.0000   1.0000   1.0000   1.0000   1.0000   1.0000   1.0000   1.0000
     1.0000   1.0000   1.0000   1.0000   1.0000   1.0000   1.0000   1.0000
     1.0000   1.0000   1.0000   1.0000   1.0000   1.0000   1.0000   1.0000
     1.0000   1.0000   1.0000   1.0000   1.0000   1.0000   1.0000   1.0000
     1.0000   1.0000   1.0000   1.0000   1.0000   1.0000   1.0000   1.0000
     1.0000   1.0000   1.0000   1.0000   1.0000   1.0000   1.0000   1.0000
     1.0000   1.0000   1.0000   1.0000   1.0000   1.0000   1.0000   1.0000
     1.0000   1.0000   1.0000   1.0000   1.0000   1.0000   1.0000   1.0000
     1.0000   1.0000   1.0000   1.0000   1.0000   1.0000   1.0000   0.0000
     0.0000   0.0000   0.0000   0.0000   0.0000   0.0000   0.0000   0.0000
     0.0000   0.0000   0.0000   0.0000   0.0000   0.0000   0.0000   0.0000
     0.0000   0.0000   0.0000   0.0000   0.0000   0.0000   0.0000   0.0000
     0.0000   0.0000   0.0000   0.0000   0.0000   0.0000   0.0000   0.0000
     0.0000   0.0000   0.0000   0.0000   0.0000   0.0000   0.0000   0.0000
     0.0000   0.0000   0.0000   0.0000   0.0000   0.0000   0.0000   0.0000
     0.0000   0.0000   0.0000   0.0000   0.0000   0.0000   0.0000   0.0000
     0.0000   0.0000   0.0000   0.0000   0.0000   0.0000

          k = 0.1429 0.0825 0.0000 (183266 PWs)   bands (ev):

   -59.6859 -59.5514 -59.5118 -59.5108 -38.3048 -38.2640 -38.2632 -38.1963
   -38.1866 -38.1861 -37.7510 -37.6423 -37.6023 -37.6005 -37.5816 -37.5757
   -33.9653 -33.9585 -33.8330 -33.7858 -33.7202 -33.6754 -33.6730 -33.6617
   -33.6565 -33.5913 -33.4259 -33.4153 -19.6251 -19.5635 -19.5621 -19.5044
   -19.4876 -19.4538 -19.4388 -19.2665 -19.2522 -19.2456 -19.2439 -19.2232
   -19.2184 -19.1885 -19.1657 -19.1649 -19.1310 -19.1199 -19.0698 -18.9947
   -18.9885 -18.9294 -18.9017 -18.8766 -18.8369 -18.6919 -18.6851 -18.6432
   -18.6327 -18.6180 -18.5928 -18.5900 -18.5668 -18.5611 -18.5403 -18.5292
   -13.0625 -11.7357 -11.5296 -11.4529 -11.3720 -10.8513 -10.7772 -10.7588
   -10.1106  -9.8068  -9.8036  -9.5849  -9.2930  -9.2905  -4.7842  -4.7395
    -4.7306  -4.5696  -3.8565  -3.8348  -3.7466  -3.1747  -3.1695  -2.8776
    -2.1000  -2.0609  -1.8913  -1.7072  -1.6071  -1.3726  -1.2108  -0.9941
    -0.9813  -0.9320  -0.4805  -0.4222  -0.3083  -0.2886  -0.2540  -0.2096
    -0.0746  -0.0105   0.1776   0.2334   0.2519   0.2912   0.3221   0.3534
     0.5143   0.5167   0.5183   0.5342   0.6834   0.7410   0.7667   0.8119
     1.0234   1.0315   1.0779   1.0889   1.3472   2.1817   2.9627   3.0298
     3.1724   3.2738   3.4725   3.5557   3.5863   3.6998   3.7455   3.7713
     3.8110   3.8532   3.8809   3.9513   3.9930   4.0599   4.2123   4.2954
     4.3570   4.4456   4.4996   4.7340   4.7772   4.8321   4.9113   5.0595
     5.0717   5.1337   5.1971   5.2338   5.4228   5.5685   5.5906   5.7104
     5.7952   5.9571   6.0020   6.0366   6.1209   6.2742   6.3153   6.4347
     6.4966   6.5488   6.6378   6.6528   6.6666   6.7029   6.7320   6.8518
     6.9704   6.9873   7.0382   7.1511   7.2498   7.4191   7.4741   7.5320
     7.5547   7.6461   7.6924   7.7404   7.7756   7.8113

     occupation numbers 
     1.0000   1.0000   1.0000   1.0000   1.0000   1.0000   1.0000   1.0000
     1.0000   1.0000   1.0000   1.0000   1.0000   1.0000   1.0000   1.0000
     1.0000   1.0000   1.0000   1.0000   1.0000   1.0000   1.0000   1.0000
     1.0000   1.0000   1.0000   1.0000   1.0000   1.0000   1.0000   1.0000
     1.0000   1.0000   1.0000   1.0000   1.0000   1.0000   1.0000   1.0000
     1.0000   1.0000   1.0000   1.0000   1.0000   1.0000   1.0000   1.0000
     1.0000   1.0000   1.0000   1.0000   1.0000   1.0000   1.0000   1.0000
     1.0000   1.0000   1.0000   1.0000   1.0000   1.0000   1.0000   1.0000
     1.0000   1.0000   1.0000   1.0000   1.0000   1.0000   1.0000   1.0000
     1.0000   1.0000   1.0000   1.0000   1.0000   1.0000   1.0000   1.0000
     1.0000   1.0000   1.0000   1.0000   1.0000   1.0000   1.0000   1.0000
     1.0000   1.0000   1.0000   1.0000   1.0000   1.0000   1.0000   1.0000
     1.0000   1.0000   1.0000   1.0000   1.0000   1.0000   1.0000   1.0000
     1.0000   1.0000   1.0000   1.0000   1.0000   1.0000   1.0000   1.0000
     1.0000   1.0000   1.0000   1.0000   1.0000   1.0000   1.0000   1.0000
     1.0000   1.0000   1.0000   1.0000   1.0000   1.0000   0.0000   0.0000
     0.0000   0.0000   0.0000   0.0000   0.0000   0.0000   0.0000   0.0000
     0.0000   0.0000   0.0000   0.0000   0.0000   0.0000   0.0000   0.0000
     0.0000   0.0000   0.0000   0.0000   0.0000   0.0000   0.0000   0.0000
     0.0000   0.0000   0.0000   0.0000   0.0000   0.0000   0.0000   0.0000
     0.0000   0.0000   0.0000   0.0000   0.0000   0.0000   0.0000   0.0000
     0.0000   0.0000   0.0000   0.0000   0.0000   0.0000   0.0000   0.0000
     0.0000   0.0000   0.0000   0.0000   0.0000   0.0000   0.0000   0.0000
     0.0000   0.0000   0.0000   0.0000   0.0000   0.0000

          k = 0.1429 0.2474 0.0000 (183319 PWs)   bands (ev):

   -59.6854 -59.5506 -59.5131 -59.5109 -38.3001 -38.2665 -38.2659 -38.1949
   -38.1870 -38.1865 -37.7500 -37.6398 -37.6076 -37.6021 -37.5795 -37.5744
   -33.9495 -33.9312 -33.8166 -33.7811 -33.7220 -33.6969 -33.6775 -33.6665
   -33.6622 -33.5944 -33.4470 -33.4205 -19.6170 -19.5842 -19.5837 -19.4979
   -19.4975 -19.4071 -19.4067 -19.3094 -19.2550 -19.2454 -19.2452 -19.2109
   -19.2105 -19.1919 -19.1614 -19.1611 -19.1482 -19.1222 -19.0661 -19.0112
   -19.0059 -18.9277 -18.9095 -18.8361 -18.7972 -18.7210 -18.6858 -18.6495
   -18.6332 -18.6261 -18.5989 -18.5785 -18.5634 -18.5611 -18.5500 -18.5286
   -12.9219 -11.6787 -11.6416 -11.5642 -11.3293 -10.9318 -10.8713 -10.7025
   -10.0689  -9.8225  -9.8206  -9.5449  -9.3076  -9.3075  -4.6219  -4.5716
    -4.5314  -4.3659  -3.9074  -3.6568  -3.6077  -3.1701  -3.0704  -2.8672
    -2.1873  -2.1162  -1.9195  -1.8743  -1.6804  -1.3806  -1.2906  -1.0659
    -0.9418  -0.8321  -0.8126  -0.5448  -0.4996  -0.3792  -0.3789  -0.2976
    -0.2168  -0.0656   0.1464   0.1610   0.2022   0.2411   0.3267   0.3296
     0.3756   0.5072   0.5083   0.5400   0.6792   0.8323   0.8574   0.9184
     0.9565   1.0423   1.0579   1.0734   1.5792   2.3303   2.8032   2.8070
     2.8779   3.0327   3.2616   3.4466   3.5197   3.6401   3.6419   3.6748
     3.7832   3.8489   3.9615   3.9658   4.0552   4.1289   4.2344   4.2416
     4.2887   4.3696   4.4127   4.5326   4.5803   4.7164   4.8871   4.9675
     5.0812   5.1280   5.1544   5.2772   5.3407   5.6339   5.6577   5.7039
     5.8902   6.0030   6.0566   6.1299   6.1939   6.2658   6.3585   6.4553
     6.6243   6.6873   6.7516   6.8016   6.8179   6.8959   6.9228   6.9615
     7.0395   7.1070   7.2239   7.3455   7.4641   7.4979   7.5933   7.6470
     7.7019   7.7344   7.7902   7.7989   7.8841   7.9016

     occupation numbers 
     1.0000   1.0000   1.0000   1.0000   1.0000   1.0000   1.0000   1.0000
     1.0000   1.0000   1.0000   1.0000   1.0000   1.0000   1.0000   1.0000
     1.0000   1.0000   1.0000   1.0000   1.0000   1.0000   1.0000   1.0000
     1.0000   1.0000   1.0000   1.0000   1.0000   1.0000   1.0000   1.0000
     1.0000   1.0000   1.0000   1.0000   1.0000   1.0000   1.0000   1.0000
     1.0000   1.0000   1.0000   1.0000   1.0000   1.0000   1.0000   1.0000
     1.0000   1.0000   1.0000   1.0000   1.0000   1.0000   1.0000   1.0000
     1.0000   1.0000   1.0000   1.0000   1.0000   1.0000   1.0000   1.0000
     1.0000   1.0000   1.0000   1.0000   1.0000   1.0000   1.0000   1.0000
     1.0000   1.0000   1.0000   1.0000   1.0000   1.0000   1.0000   1.0000
     1.0000   1.0000   1.0000   1.0000   1.0000   1.0000   1.0000   1.0000
     1.0000   1.0000   1.0000   1.0000   1.0000   1.0000   1.0000   1.0000
     1.0000   1.0000   1.0000   1.0000   1.0000   1.0000   1.0000   1.0000
     1.0000   1.0000   1.0000   1.0000   1.0000   1.0000   1.0000   1.0000
     1.0000   1.0000   1.0000   1.0000   1.0000   1.0000   1.0000   1.0000
     1.0000   1.0000   1.0000   1.0000   1.0000   1.0000   0.0000   0.0000
     0.0000   0.0000   0.0000   0.0000   0.0000   0.0000   0.0000   0.0000
     0.0000   0.0000   0.0000   0.0000   0.0000   0.0000   0.0000   0.0000
     0.0000   0.0000   0.0000   0.0000   0.0000   0.0000   0.0000   0.0000
     0.0000   0.0000   0.0000   0.0000   0.0000   0.0000   0.0000   0.0000
     0.0000   0.0000   0.0000   0.0000   0.0000   0.0000   0.0000   0.0000
     0.0000   0.0000   0.0000   0.0000   0.0000   0.0000   0.0000   0.0000
     0.0000   0.0000   0.0000   0.0000   0.0000   0.0000   0.0000   0.0000
     0.0000   0.0000   0.0000   0.0000   0.0000   0.0000

          k = 0.1429 0.4124 0.0000 (183422 PWs)   bands (ev):

   -59.6849 -59.5494 -59.5149 -59.5108 -38.2919 -38.2728 -38.2685 -38.1926
   -38.1881 -38.1872 -37.7488 -37.6349 -37.6152 -37.6041 -37.5776 -37.5729
   -33.9253 -33.8869 -33.7954 -33.7745 -33.7362 -33.7244 -33.6884 -33.6736
   -33.6656 -33.5968 -33.4749 -33.4280 -19.6055 -19.6041 -19.5930 -19.5134
   -19.4744 -19.3713 -19.3699 -19.3492 -19.2819 -19.2559 -19.2378 -19.2133
   -19.1996 -19.1932 -19.1606 -19.1525 -19.1507 -19.1293 -19.0644 -19.0238
   -19.0130 -18.9333 -18.8944 -18.8028 -18.7717 -18.7459 -18.6964 -18.6539
   -18.6488 -18.6310 -18.5978 -18.5752 -18.5692 -18.5557 -18.5443 -18.5301
   -12.6591 -11.9362 -11.6780 -11.5237 -11.2864 -11.0962 -10.9273 -10.6546
   -10.0000  -9.8627  -9.8379  -9.4790  -9.3473  -9.3233  -4.4096  -4.2973
    -4.2430  -4.0901  -3.9136  -3.4576  -3.3405  -3.1201  -2.9598  -2.8035
    -2.3816  -2.3276  -2.1708  -2.0015  -1.8422  -1.7314  -1.3468  -1.1965
    -1.1169  -0.8594  -0.6599  -0.5598  -0.5559  -0.4941  -0.4524  -0.3698
    -0.2363  -0.1910   0.0274   0.0953   0.1458   0.2014   0.2477   0.2675
     0.4358   0.5303   0.5485   0.5610   0.5653   0.6968   0.8032   0.9773
     1.0410   1.0689   1.0827   1.1917   1.8582   2.4413   2.4619   2.6096
     2.6763   2.7743   3.0494   3.3131   3.4146   3.4343   3.5238   3.6133
     3.7017   3.7983   3.8082   3.8791   3.9484   4.0188   4.1032   4.1519
     4.2738   4.3312   4.3452   4.4302   4.5123   4.6027   4.8376   4.9654
     5.1642   5.2168   5.2371   5.2869   5.4026   5.5824   5.8110   5.8882
     6.0397   6.1320   6.1775   6.2435   6.3223   6.4065   6.4477   6.5560
     6.7184   6.8187   6.8394   6.9653   7.0656   7.1083   7.1563   7.2024
     7.2860   7.3836   7.4434   7.4618   7.5185   7.5707   7.6081   7.6558
     7.7154   7.7664   7.8108   7.8821   7.9120   7.9788

     occupation numbers 
     1.0000   1.0000   1.0000   1.0000   1.0000   1.0000   1.0000   1.0000
     1.0000   1.0000   1.0000   1.0000   1.0000   1.0000   1.0000   1.0000
     1.0000   1.0000   1.0000   1.0000   1.0000   1.0000   1.0000   1.0000
     1.0000   1.0000   1.0000   1.0000   1.0000   1.0000   1.0000   1.0000
     1.0000   1.0000   1.0000   1.0000   1.0000   1.0000   1.0000   1.0000
     1.0000   1.0000   1.0000   1.0000   1.0000   1.0000   1.0000   1.0000
     1.0000   1.0000   1.0000   1.0000   1.0000   1.0000   1.0000   1.0000
     1.0000   1.0000   1.0000   1.0000   1.0000   1.0000   1.0000   1.0000
     1.0000   1.0000   1.0000   1.0000   1.0000   1.0000   1.0000   1.0000
     1.0000   1.0000   1.0000   1.0000   1.0000   1.0000   1.0000   1.0000
     1.0000   1.0000   1.0000   1.0000   1.0000   1.0000   1.0000   1.0000
     1.0000   1.0000   1.0000   1.0000   1.0000   1.0000   1.0000   1.0000
     1.0000   1.0000   1.0000   1.0000   1.0000   1.0000   1.0000   1.0000
     1.0000   1.0000   1.0000   1.0000   1.0000   1.0000   1.0000   1.0000
     1.0000   1.0000   1.0000   1.0000   1.0000   1.0000   1.0000   1.0000
     1.0000   1.0000   1.0000   1.0000   1.0000   1.0000   1.0000   0.4576
     0.0000   0.0000   0.0000   0.0000   0.0000   0.0000   0.0000   0.0000
     0.0000   0.0000   0.0000   0.0000   0.0000   0.0000   0.0000   0.0000
     0.0000   0.0000   0.0000   0.0000   0.0000   0.0000   0.0000   0.0000
     0.0000   0.0000   0.0000   0.0000   0.0000   0.0000   0.0000   0.0000
     0.0000   0.0000   0.0000   0.0000   0.0000   0.0000   0.0000   0.0000
     0.0000   0.0000   0.0000   0.0000   0.0000   0.0000   0.0000   0.0000
     0.0000   0.0000   0.0000   0.0000   0.0000   0.0000   0.0000   0.0000
     0.0000   0.0000   0.0000   0.0000   0.0000   0.0000

          k = 0.1429 0.5774 0.0000 (183397 PWs)   bands (ev):

   -59.6846 -59.5488 -59.5158 -59.5108 -38.2823 -38.2817 -38.2695 -38.1903
   -38.1899 -38.1874 -37.7483 -37.6306 -37.6206 -37.6049 -37.5769 -37.5723
   -33.9123 -33.8551 -33.7955 -33.7712 -33.7523 -33.7263 -33.6995 -33.6774
   -33.6657 -33.5966 -33.4886 -33.4314 -19.6118 -19.5972 -19.5967 -19.5195
   -19.4311 -19.4308 -19.3266 -19.3264 -19.3208 -19.2639 -19.2293 -19.2293
   -19.2006 -19.1733 -19.1731 -19.1427 -19.1413 -19.1411 -19.0648 -19.0286
   -19.0115 -18.9377 -18.8541 -18.8460 -18.7498 -18.7413 -18.7008 -18.6681
   -18.6530 -18.6278 -18.6029 -18.5737 -18.5670 -18.5537 -18.5402 -18.5313
   -12.3380 -12.2811 -11.6996 -11.4013 -11.3163 -11.1978 -10.9419 -10.6369
    -9.9263  -9.9245  -9.8449  -9.4076  -9.4074  -9.3299  -4.3052  -4.1783
    -4.0917  -3.9695  -3.8200  -3.3381  -3.2825  -2.9366  -2.8624  -2.8124
    -2.5365  -2.4950  -2.3983  -2.1817  -1.9524  -1.6500  -1.5669  -1.3788
    -1.1280  -0.8216  -0.6316  -0.5802  -0.4985  -0.4548  -0.4490  -0.3507
    -0.2549  -0.0798  -0.0787  -0.0262   0.1540   0.2093   0.2423   0.2802
     0.4127   0.4463   0.5619   0.5648   0.6055   0.6220   0.6334   0.9872
     1.0636   1.0810   1.1314   1.3216   2.1285   2.1394   2.2282   2.6216
     2.6923   2.9704   3.0041   3.0063   3.2216   3.3955   3.4705   3.5961
     3.6977   3.7259   3.7643   3.8642   3.9074   3.9481   3.9550   3.9909
     4.0771   4.2899   4.3984   4.5227   4.6040   4.7657   4.8432   4.8755
     4.9574   5.2740   5.2953   5.4275   5.4670   5.5732   5.8324   6.0114
     6.0894   6.1479   6.2407   6.3944   6.4842   6.5695   6.5822   6.6477
     6.8072   6.8243   6.8520   7.0562   7.0851   7.0940   7.1739   7.2771
     7.3447   7.4760   7.5003   7.5288   7.5932   7.6603   7.7290   7.7437
     7.7858   7.7941   7.8569   7.8706   7.9095   7.9213

     occupation numbers 
     1.0000   1.0000   1.0000   1.0000   1.0000   1.0000   1.0000   1.0000
     1.0000   1.0000   1.0000   1.0000   1.0000   1.0000   1.0000   1.0000
     1.0000   1.0000   1.0000   1.0000   1.0000   1.0000   1.0000   1.0000
     1.0000   1.0000   1.0000   1.0000   1.0000   1.0000   1.0000   1.0000
     1.0000   1.0000   1.0000   1.0000   1.0000   1.0000   1.0000   1.0000
     1.0000   1.0000   1.0000   1.0000   1.0000   1.0000   1.0000   1.0000
     1.0000   1.0000   1.0000   1.0000   1.0000   1.0000   1.0000   1.0000
     1.0000   1.0000   1.0000   1.0000   1.0000   1.0000   1.0000   1.0000
     1.0000   1.0000   1.0000   1.0000   1.0000   1.0000   1.0000   1.0000
     1.0000   1.0000   1.0000   1.0000   1.0000   1.0000   1.0000   1.0000
     1.0000   1.0000   1.0000   1.0000   1.0000   1.0000   1.0000   1.0000
     1.0000   1.0000   1.0000   1.0000   1.0000   1.0000   1.0000   1.0000
     1.0000   1.0000   1.0000   1.0000   1.0000   1.0000   1.0000   1.0000
     1.0000   1.0000   1.0000   1.0000   1.0000   1.0000   1.0000   1.0000
     1.0000   1.0000   1.0000   1.0000   1.0000   1.0000   1.0000   1.0000
     1.0000   1.0000   1.0000   1.0000   1.0000   1.0000   1.0000   0.0879
     0.0000   0.0000   0.0000   0.0000   0.0000   0.0000   0.0000   0.0000
     0.0000   0.0000   0.0000   0.0000   0.0000   0.0000   0.0000   0.0000
     0.0000   0.0000   0.0000   0.0000   0.0000   0.0000   0.0000   0.0000
     0.0000   0.0000   0.0000   0.0000   0.0000   0.0000   0.0000   0.0000
     0.0000   0.0000   0.0000   0.0000   0.0000   0.0000   0.0000   0.0000
     0.0000   0.0000   0.0000   0.0000   0.0000   0.0000   0.0000   0.0000
     0.0000   0.0000   0.0000   0.0000   0.0000   0.0000   0.0000   0.0000
     0.0000   0.0000   0.0000   0.0000   0.0000   0.0000

          k = 0.1429-0.4124 0.0000 (183422 PWs)   bands (ev):

   -59.6849 -59.5494 -59.5149 -59.5108 -38.2919 -38.2728 -38.2685 -38.1926
   -38.1881 -38.1872 -37.7488 -37.6348 -37.6154 -37.6040 -37.5776 -37.5729
   -33.9253 -33.8868 -33.7959 -33.7745 -33.7357 -33.7239 -33.6890 -33.6738
   -33.6656 -33.5965 -33.4750 -33.4279 -19.6055 -19.6041 -19.5930 -19.5134
   -19.4744 -19.3713 -19.3699 -19.3492 -19.2819 -19.2559 -19.2378 -19.2134
   -19.1996 -19.1932 -19.1605 -19.1525 -19.1507 -19.1293 -19.0644 -19.0237
   -19.0130 -18.9334 -18.8944 -18.8027 -18.7720 -18.7458 -18.6964 -18.6539
   -18.6492 -18.6307 -18.5972 -18.5772 -18.5677 -18.5560 -18.5440 -18.5302
   -12.6591 -11.9362 -11.6787 -11.5220 -11.2891 -11.0935 -10.9285 -10.6545
   -10.0000  -9.8627  -9.8379  -9.4790  -9.3473  -9.3233  -4.4006  -4.3149
    -4.2351  -4.0862  -3.9191  -3.4589  -3.3453  -3.1065  -2.9568  -2.8109
    -2.3626  -2.3200  -2.2032  -2.0017  -1.8541  -1.7294  -1.2921  -1.2089
    -1.1320  -0.8905  -0.6629  -0.5600  -0.5546  -0.4713  -0.4524  -0.3612
    -0.2423  -0.1892   0.0209   0.1017   0.1491   0.1966   0.2466   0.2665
     0.4359   0.5303   0.5496   0.5609   0.5652   0.6923   0.8045   0.9734
     1.0419   1.0703   1.0797   1.1952   1.8581   2.4345   2.4624   2.6112
     2.6762   2.7886   3.0560   3.2907   3.4145   3.4293   3.5219   3.6073
     3.7396   3.7916   3.8058   3.8772   3.9430   4.0347   4.0821   4.1463
     4.2730   4.3196   4.3645   4.4343   4.5230   4.6060   4.7992   5.0024
     5.1422   5.1988   5.2423   5.2946   5.4140   5.5815   5.8250   5.8818
     6.0445   6.1353   6.1813   6.2474   6.3054   6.3755   6.4943   6.5575
     6.7038   6.8208   6.8365   6.9530   7.0543   7.1143   7.1578   7.1927
     7.2880   7.3900   7.4418   7.4580   7.5284   7.5840   7.5972   7.6643
     7.7235   7.7544   7.8081   7.8690   7.9066   7.9916

     occupation numbers 
     1.0000   1.0000   1.0000   1.0000   1.0000   1.0000   1.0000   1.0000
     1.0000   1.0000   1.0000   1.0000   1.0000   1.0000   1.0000   1.0000
     1.0000   1.0000   1.0000   1.0000   1.0000   1.0000   1.0000   1.0000
     1.0000   1.0000   1.0000   1.0000   1.0000   1.0000   1.0000   1.0000
     1.0000   1.0000   1.0000   1.0000   1.0000   1.0000   1.0000   1.0000
     1.0000   1.0000   1.0000   1.0000   1.0000   1.0000   1.0000   1.0000
     1.0000   1.0000   1.0000   1.0000   1.0000   1.0000   1.0000   1.0000
     1.0000   1.0000   1.0000   1.0000   1.0000   1.0000   1.0000   1.0000
     1.0000   1.0000   1.0000   1.0000   1.0000   1.0000   1.0000   1.0000
     1.0000   1.0000   1.0000   1.0000   1.0000   1.0000   1.0000   1.0000
     1.0000   1.0000   1.0000   1.0000   1.0000   1.0000   1.0000   1.0000
     1.0000   1.0000   1.0000   1.0000   1.0000   1.0000   1.0000   1.0000
     1.0000   1.0000   1.0000   1.0000   1.0000   1.0000   1.0000   1.0000
     1.0000   1.0000   1.0000   1.0000   1.0000   1.0000   1.0000   1.0000
     1.0000   1.0000   1.0000   1.0000   1.0000   1.0000   1.0000   1.0000
     1.0000   1.0000   1.0000   1.0000   1.0000   1.0000   1.0000   0.3920
     0.0000   0.0000   0.0000   0.0000   0.0000   0.0000   0.0000   0.0000
     0.0000   0.0000   0.0000   0.0000   0.0000   0.0000   0.0000   0.0000
     0.0000   0.0000   0.0000   0.0000   0.0000   0.0000   0.0000   0.0000
     0.0000   0.0000   0.0000   0.0000   0.0000   0.0000   0.0000   0.0000
     0.0000   0.0000   0.0000   0.0000   0.0000   0.0000   0.0000   0.0000
     0.0000   0.0000   0.0000   0.0000   0.0000   0.0000   0.0000   0.0000
     0.0000   0.0000   0.0000   0.0000   0.0000   0.0000   0.0000   0.0000
     0.0000   0.0000   0.0000   0.0000   0.0000   0.0000

          k = 0.1429-0.2474 0.0000 (183319 PWs)   bands (ev):

   -59.6854 -59.5506 -59.5130 -59.5109 -38.3001 -38.2665 -38.2659 -38.1949
   -38.1870 -38.1865 -37.7500 -37.6398 -37.6079 -37.6018 -37.5796 -37.5744
   -33.9495 -33.9312 -33.8166 -33.7811 -33.7220 -33.6969 -33.6774 -33.6666
   -33.6622 -33.5945 -33.4469 -33.4205 -19.6170 -19.5843 -19.5836 -19.4978
   -19.4976 -19.4072 -19.4066 -19.3094 -19.2549 -19.2454 -19.2452 -19.2109
   -19.2106 -19.1919 -19.1614 -19.1611 -19.1483 -19.1222 -19.0661 -19.0112
   -19.0059 -18.9278 -18.9095 -18.8360 -18.7972 -18.7211 -18.6857 -18.6496
   -18.6329 -18.6262 -18.5990 -18.5787 -18.5634 -18.5610 -18.5501 -18.5286
   -12.9219 -11.6787 -11.6415 -11.5644 -11.3294 -10.9317 -10.8714 -10.7025
   -10.0689  -9.8225  -9.8206  -9.5449  -9.3076  -9.3075  -4.6220  -4.5716
    -4.5316  -4.3656  -3.9074  -3.6568  -3.6076  -3.1702  -3.0703  -2.8672
    -2.1874  -2.1163  -1.9194  -1.8742  -1.6802  -1.3809  -1.2903  -1.0658
    -0.9419  -0.8321  -0.8125  -0.5446  -0.4995  -0.3792  -0.3789  -0.2975
    -0.2173  -0.0656   0.1464   0.1610   0.2021   0.2413   0.3268   0.3297
     0.3754   0.5072   0.5083   0.5399   0.6792   0.8325   0.8575   0.9185
     0.9564   1.0424   1.0581   1.0733   1.5792   2.3303   2.8027   2.8074
     2.8779   3.0325   3.2616   3.4465   3.5198   3.6395   3.6423   3.6748
     3.7835   3.8491   3.9611   3.9662   4.0551   4.1284   4.2328   4.2424
     4.2911   4.3689   4.4125   4.5333   4.5801   4.7166   4.8863   4.9679
     5.0815   5.1275   5.1547   5.2771   5.3403   5.6335   5.6576   5.7039
     5.8897   6.0031   6.0561   6.1298   6.1937   6.2649   6.3599   6.4557
     6.6248   6.6872   6.7513   6.8018   6.8176   6.8961   6.9228   6.9619
     7.0394   7.1069   7.2242   7.3465   7.4640   7.4978   7.5918   7.6478
     7.7020   7.7341   7.7909   7.7983   7.8834   7.9009

     occupation numbers 
     1.0000   1.0000   1.0000   1.0000   1.0000   1.0000   1.0000   1.0000
     1.0000   1.0000   1.0000   1.0000   1.0000   1.0000   1.0000   1.0000
     1.0000   1.0000   1.0000   1.0000   1.0000   1.0000   1.0000   1.0000
     1.0000   1.0000   1.0000   1.0000   1.0000   1.0000   1.0000   1.0000
     1.0000   1.0000   1.0000   1.0000   1.0000   1.0000   1.0000   1.0000
     1.0000   1.0000   1.0000   1.0000   1.0000   1.0000   1.0000   1.0000
     1.0000   1.0000   1.0000   1.0000   1.0000   1.0000   1.0000   1.0000
     1.0000   1.0000   1.0000   1.0000   1.0000   1.0000   1.0000   1.0000
     1.0000   1.0000   1.0000   1.0000   1.0000   1.0000   1.0000   1.0000
     1.0000   1.0000   1.0000   1.0000   1.0000   1.0000   1.0000   1.0000
     1.0000   1.0000   1.0000   1.0000   1.0000   1.0000   1.0000   1.0000
     1.0000   1.0000   1.0000   1.0000   1.0000   1.0000   1.0000   1.0000
     1.0000   1.0000   1.0000   1.0000   1.0000   1.0000   1.0000   1.0000
     1.0000   1.0000   1.0000   1.0000   1.0000   1.0000   1.0000   1.0000
     1.0000   1.0000   1.0000   1.0000   1.0000   1.0000   1.0000   1.0000
     1.0000   1.0000   1.0000   1.0000   1.0000   1.0000   0.0000   0.0000
     0.0000   0.0000   0.0000   0.0000   0.0000   0.0000   0.0000   0.0000
     0.0000   0.0000   0.0000   0.0000   0.0000   0.0000   0.0000   0.0000
     0.0000   0.0000   0.0000   0.0000   0.0000   0.0000   0.0000   0.0000
     0.0000   0.0000   0.0000   0.0000   0.0000   0.0000   0.0000   0.0000
     0.0000   0.0000   0.0000   0.0000   0.0000   0.0000   0.0000   0.0000
     0.0000   0.0000   0.0000   0.0000   0.0000   0.0000   0.0000   0.0000
     0.0000   0.0000   0.0000   0.0000   0.0000   0.0000   0.0000   0.0000
     0.0000   0.0000   0.0000   0.0000   0.0000   0.0000

          k = 0.1429-0.0825 0.0000 (183268 PWs)   bands (ev):

   -59.6859 -59.5514 -59.5117 -59.5109 -38.3048 -38.2640 -38.2632 -38.1963
   -38.1866 -38.1861 -37.7510 -37.6423 -37.6026 -37.6001 -37.5817 -37.5757
   -33.9653 -33.9585 -33.8330 -33.7858 -33.7202 -33.6754 -33.6729 -33.6618
   -33.6565 -33.5913 -33.4259 -33.4153 -19.6251 -19.5635 -19.5621 -19.5045
   -19.4876 -19.4537 -19.4388 -19.2666 -19.2522 -19.2456 -19.2438 -19.2232
   -19.2184 -19.1885 -19.1657 -19.1649 -19.1310 -19.1199 -19.0698 -18.9946
   -18.9885 -18.9295 -18.9017 -18.8765 -18.8369 -18.6920 -18.6850 -18.6431
   -18.6326 -18.6180 -18.5929 -18.5901 -18.5667 -18.5610 -18.5404 -18.5292
   -13.0625 -11.7357 -11.5295 -11.4531 -11.3720 -10.8513 -10.7773 -10.7588
   -10.1106  -9.8068  -9.8036  -9.5849  -9.2930  -9.2905  -4.7840  -4.7397
    -4.7308  -4.5694  -3.8566  -3.8347  -3.7465  -3.1748  -3.1694  -2.8776
    -2.1002  -2.0607  -1.8912  -1.7072  -1.6071  -1.3725  -1.2109  -0.9941
    -0.9810  -0.9323  -0.4803  -0.4223  -0.3081  -0.2887  -0.2540  -0.2096
    -0.0747  -0.0106   0.1776   0.2335   0.2520   0.2912   0.3220   0.3534
     0.5142   0.5167   0.5183   0.5341   0.6836   0.7414   0.7667   0.8118
     1.0234   1.0314   1.0780   1.0890   1.3472   2.1817   2.9629   3.0294
     3.1725   3.2736   3.4723   3.5559   3.5866   3.6996   3.7452   3.7716
     3.8114   3.8530   3.8808   3.9512   3.9927   4.0602   4.2122   4.2952
     4.3580   4.4453   4.4993   4.7340   4.7777   4.8325   4.9115   5.0593
     5.0716   5.1334   5.1972   5.2338   5.4224   5.5686   5.5903   5.7102
     5.7953   5.9569   6.0023   6.0364   6.1199   6.2756   6.3152   6.4347
     6.4966   6.5482   6.6374   6.6532   6.6668   6.7031   6.7317   6.8518
     6.9705   6.9873   7.0384   7.1510   7.2511   7.4182   7.4738   7.5330
     7.5542   7.6465   7.6921   7.7391   7.7752   7.8127

     occupation numbers 
     1.0000   1.0000   1.0000   1.0000   1.0000   1.0000   1.0000   1.0000
     1.0000   1.0000   1.0000   1.0000   1.0000   1.0000   1.0000   1.0000
     1.0000   1.0000   1.0000   1.0000   1.0000   1.0000   1.0000   1.0000
     1.0000   1.0000   1.0000   1.0000   1.0000   1.0000   1.0000   1.0000
     1.0000   1.0000   1.0000   1.0000   1.0000   1.0000   1.0000   1.0000
     1.0000   1.0000   1.0000   1.0000   1.0000   1.0000   1.0000   1.0000
     1.0000   1.0000   1.0000   1.0000   1.0000   1.0000   1.0000   1.0000
     1.0000   1.0000   1.0000   1.0000   1.0000   1.0000   1.0000   1.0000
     1.0000   1.0000   1.0000   1.0000   1.0000   1.0000   1.0000   1.0000
     1.0000   1.0000   1.0000   1.0000   1.0000   1.0000   1.0000   1.0000
     1.0000   1.0000   1.0000   1.0000   1.0000   1.0000   1.0000   1.0000
     1.0000   1.0000   1.0000   1.0000   1.0000   1.0000   1.0000   1.0000
     1.0000   1.0000   1.0000   1.0000   1.0000   1.0000   1.0000   1.0000
     1.0000   1.0000   1.0000   1.0000   1.0000   1.0000   1.0000   1.0000
     1.0000   1.0000   1.0000   1.0000   1.0000   1.0000   1.0000   1.0000
     1.0000   1.0000   1.0000   1.0000   1.0000   1.0000   0.0000   0.0000
     0.0000   0.0000   0.0000   0.0000   0.0000   0.0000   0.0000   0.0000
     0.0000   0.0000   0.0000   0.0000   0.0000   0.0000   0.0000   0.0000
     0.0000   0.0000   0.0000   0.0000   0.0000   0.0000   0.0000   0.0000
     0.0000   0.0000   0.0000   0.0000   0.0000   0.0000   0.0000   0.0000
     0.0000   0.0000   0.0000   0.0000   0.0000   0.0000   0.0000   0.0000
     0.0000   0.0000   0.0000   0.0000   0.0000   0.0000   0.0000   0.0000
     0.0000   0.0000   0.0000   0.0000   0.0000   0.0000   0.0000   0.0000
     0.0000   0.0000   0.0000   0.0000   0.0000   0.0000

          k = 0.2857 0.1650 0.0000 (183392 PWs)   bands (ev):

   -59.6853 -59.5502 -59.5137 -59.5108 -38.2979 -38.2692 -38.2656 -38.1943
   -38.1874 -38.1866 -37.7496 -37.6386 -37.6098 -37.6026 -37.5789 -37.5740
   -33.9445 -33.9171 -33.8103 -33.7792 -33.7229 -33.7065 -33.6803 -33.6673
   -33.6657 -33.5944 -33.4578 -33.4207 -19.6135 -19.5964 -19.5840 -19.5174
   -19.4659 -19.4176 -19.3785 -19.3225 -19.2699 -19.2548 -19.2247 -19.2170
   -19.2059 -19.1921 -19.1590 -19.1585 -19.1508 -19.1269 -19.0651 -19.0199
   -19.0075 -18.9376 -18.8891 -18.8337 -18.7801 -18.7322 -18.6912 -18.6481
   -18.6416 -18.6304 -18.5885 -18.5821 -18.5658 -18.5551 -18.5500 -18.5325
   -12.8540 -11.7954 -11.6316 -11.4636 -11.3776 -11.0190 -10.7873 -10.7511
   -10.0498  -9.8395  -9.8191  -9.5267  -9.3249  -9.3052  -4.5543  -4.5055
    -4.4422  -4.2810  -3.8019  -3.7693  -3.5053  -3.1344  -3.0684  -2.8404
    -2.2304  -2.1863  -2.0477  -1.7761  -1.7074  -1.4173  -1.3085  -1.0988
    -1.0383  -0.7821  -0.7454  -0.7142  -0.5140  -0.4848  -0.3400  -0.3331
    -0.1760  -0.1143   0.0846   0.1152   0.1522   0.1877   0.2822   0.3598
     0.4584   0.4971   0.5135   0.5410   0.6208   0.7729   0.8364   0.9768
     0.9882   1.0375   1.0583   1.0808   1.6684   2.4030   2.6168   2.6883
     2.9016   3.0790   3.2605   3.3842   3.4233   3.5542   3.5902   3.6820
     3.7583   3.8062   3.8894   4.0319   4.0787   4.1339   4.2066   4.2521
     4.2795   4.3277   4.4074   4.4824   4.5963   4.6133   4.8204   4.9584
     5.1326   5.1522   5.1606   5.2309   5.3407   5.5680   5.7206   5.7683
     5.9682   6.0199   6.0628   6.1719   6.2213   6.2933   6.4110   6.4704
     6.5932   6.7111   6.7638   6.8305   6.9256   6.9442   7.0239   7.0619
     7.0983   7.2705   7.2921   7.3577   7.4120   7.5566   7.5838   7.6264
     7.7424   7.7551   7.7759   7.8427   7.9547   7.9995

     occupation numbers 
     1.0000   1.0000   1.0000   1.0000   1.0000   1.0000   1.0000   1.0000
     1.0000   1.0000   1.0000   1.0000   1.0000   1.0000   1.0000   1.0000
     1.0000   1.0000   1.0000   1.0000   1.0000   1.0000   1.0000   1.0000
     1.0000   1.0000   1.0000   1.0000   1.0000   1.0000   1.0000   1.0000
     1.0000   1.0000   1.0000   1.0000   1.0000   1.0000   1.0000   1.0000
     1.0000   1.0000   1.0000   1.0000   1.0000   1.0000   1.0000   1.0000
     1.0000   1.0000   1.0000   1.0000   1.0000   1.0000   1.0000   1.0000
     1.0000   1.0000   1.0000   1.0000   1.0000   1.0000   1.0000   1.0000
     1.0000   1.0000   1.0000   1.0000   1.0000   1.0000   1.0000   1.0000
     1.0000   1.0000   1.0000   1.0000   1.0000   1.0000   1.0000   1.0000
     1.0000   1.0000   1.0000   1.0000   1.0000   1.0000   1.0000   1.0000
     1.0000   1.0000   1.0000   1.0000   1.0000   1.0000   1.0000   1.0000
     1.0000   1.0000   1.0000   1.0000   1.0000   1.0000   1.0000   1.0000
     1.0000   1.0000   1.0000   1.0000   1.0000   1.0000   1.0000   1.0000
     1.0000   1.0000   1.0000   1.0000   1.0000   1.0000   1.0000   1.0000
     1.0000   1.0000   1.0000   1.0000   1.0000   1.0000   0.1962   0.0000
     0.0000   0.0000   0.0000   0.0000   0.0000   0.0000   0.0000   0.0000
     0.0000   0.0000   0.0000   0.0000   0.0000   0.0000   0.0000   0.0000
     0.0000   0.0000   0.0000   0.0000   0.0000   0.0000   0.0000   0.0000
     0.0000   0.0000   0.0000   0.0000   0.0000   0.0000   0.0000   0.0000
     0.0000   0.0000   0.0000   0.0000   0.0000   0.0000   0.0000   0.0000
     0.0000   0.0000   0.0000   0.0000   0.0000   0.0000   0.0000   0.0000
     0.0000   0.0000   0.0000   0.0000   0.0000   0.0000   0.0000   0.0000
     0.0000   0.0000   0.0000   0.0000   0.0000   0.0000

          k = 0.2857 0.3299 0.0000 (183422 PWs)   bands (ev):

   -59.6849 -59.5494 -59.5150 -59.5107 -38.2919 -38.2728 -38.2686 -38.1926
   -38.1881 -38.1872 -37.7488 -37.6349 -37.6149 -37.6044 -37.5775 -37.5730
   -33.9253 -33.8868 -33.7958 -33.7745 -33.7357 -33.7238 -33.6891 -33.6738
   -33.6656 -33.5966 -33.4750 -33.4279 -19.6055 -19.6038 -19.5933 -19.5134
   -19.4746 -19.3714 -19.3695 -19.3495 -19.2819 -19.2559 -19.2378 -19.2133
   -19.1997 -19.1931 -19.1605 -19.1525 -19.1508 -19.1293 -19.0644 -19.0235
   -19.0133 -18.9332 -18.8945 -18.8027 -18.7720 -18.7457 -18.6965 -18.6537
   -18.6491 -18.6310 -18.5973 -18.5771 -18.5675 -18.5558 -18.5442 -18.5302
   -12.6591 -11.9362 -11.6788 -11.5219 -11.2890 -11.0934 -10.9286 -10.6545
   -10.0000  -9.8627  -9.8379  -9.4790  -9.3473  -9.3233  -4.4004  -4.3150
    -4.2350  -4.0865  -3.9191  -3.4590  -3.3452  -3.1065  -2.9568  -2.8107
    -2.3629  -2.3199  -2.2035  -2.0019  -1.8539  -1.7295  -1.2923  -1.2089
    -1.1318  -0.8902  -0.6631  -0.5600  -0.5547  -0.4711  -0.4524  -0.3610
    -0.2424  -0.1891   0.0210   0.1015   0.1490   0.1967   0.2468   0.2664
     0.4361   0.5299   0.5495   0.5614   0.5652   0.6922   0.8044   0.9734
     1.0416   1.0705   1.0798   1.1949   1.8580   2.4348   2.4631   2.6112
     2.6741   2.7887   3.0560   3.2908   3.4146   3.4293   3.5215   3.6074
     3.7397   3.7910   3.8055   3.8777   3.9433   4.0347   4.0825   4.1488
     4.2727   4.3179   4.3677   4.4335   4.5227   4.6061   4.7991   5.0033
     5.1420   5.1992   5.2425   5.2943   5.4126   5.5820   5.8246   5.8801
     6.0446   6.1374   6.1824   6.2466   6.3042   6.3742   6.4940   6.5580
     6.7054   6.8211   6.8366   6.9538   7.0550   7.1139   7.1576   7.1929
     7.2882   7.3897   7.4415   7.4580   7.5273   7.5840   7.5968   7.6637
     7.7230   7.7546   7.8065   7.8693   7.9060   7.9911

     occupation numbers 
     1.0000   1.0000   1.0000   1.0000   1.0000   1.0000   1.0000   1.0000
     1.0000   1.0000   1.0000   1.0000   1.0000   1.0000   1.0000   1.0000
     1.0000   1.0000   1.0000   1.0000   1.0000   1.0000   1.0000   1.0000
     1.0000   1.0000   1.0000   1.0000   1.0000   1.0000   1.0000   1.0000
     1.0000   1.0000   1.0000   1.0000   1.0000   1.0000   1.0000   1.0000
     1.0000   1.0000   1.0000   1.0000   1.0000   1.0000   1.0000   1.0000
     1.0000   1.0000   1.0000   1.0000   1.0000   1.0000   1.0000   1.0000
     1.0000   1.0000   1.0000   1.0000   1.0000   1.0000   1.0000   1.0000
     1.0000   1.0000   1.0000   1.0000   1.0000   1.0000   1.0000   1.0000
     1.0000   1.0000   1.0000   1.0000   1.0000   1.0000   1.0000   1.0000
     1.0000   1.0000   1.0000   1.0000   1.0000   1.0000   1.0000   1.0000
     1.0000   1.0000   1.0000   1.0000   1.0000   1.0000   1.0000   1.0000
     1.0000   1.0000   1.0000   1.0000   1.0000   1.0000   1.0000   1.0000
     1.0000   1.0000   1.0000   1.0000   1.0000   1.0000   1.0000   1.0000
     1.0000   1.0000   1.0000   1.0000   1.0000   1.0000   1.0000   1.0000
     1.0000   1.0000   1.0000   1.0000   1.0000   1.0000   1.0000   0.3914
     0.0000   0.0000   0.0000   0.0000   0.0000   0.0000   0.0000   0.0000
     0.0000   0.0000   0.0000   0.0000   0.0000   0.0000   0.0000   0.0000
     0.0000   0.0000   0.0000   0.0000   0.0000   0.0000   0.0000   0.0000
     0.0000   0.0000   0.0000   0.0000   0.0000   0.0000   0.0000   0.0000
     0.0000   0.0000   0.0000   0.0000   0.0000   0.0000   0.0000   0.0000
     0.0000   0.0000   0.0000   0.0000   0.0000   0.0000   0.0000   0.0000
     0.0000   0.0000   0.0000   0.0000   0.0000   0.0000   0.0000   0.0000
     0.0000   0.0000   0.0000   0.0000   0.0000   0.0000

          k = 0.2857 0.4949 0.0000 (183433 PWs)   bands (ev):

   -59.6846 -59.5486 -59.5162 -59.5106 -38.2835 -38.2753 -38.2747 -38.1905
   -38.1888 -38.1882 -37.7481 -37.6293 -37.6212 -37.6063 -37.5763 -37.5723
   -33.8963 -33.8691 -33.7808 -33.7707 -33.7578 -33.7256 -33.7079 -33.6798
   -33.6646 -33.5982 -33.4835 -33.4382 -19.6010 -19.6006 -19.5992 -19.4863
   -19.4859 -19.4347 -19.3196 -19.3191 -19.2926 -19.2563 -19.2562 -19.2454
   -19.1863 -19.1858 -19.1718 -19.1410 -19.1407 -19.1329 -19.0643 -19.0195
   -19.0160 -18.9081 -18.9018 -18.8530 -18.7443 -18.7227 -18.6899 -18.6677
   -18.6530 -18.6486 -18.6034 -18.5749 -18.5729 -18.5455 -18.5422 -18.5251
   -12.3659 -12.0440 -11.9729 -11.3921 -11.2617 -11.1221 -11.0780 -10.5868
    -9.9369  -9.8797  -9.8778  -9.4185  -9.3627  -9.3625  -4.3510  -4.1235
    -4.0794  -3.9090  -3.7299  -3.3183  -3.0552  -3.0113  -2.8262  -2.7909
    -2.6509  -2.5628  -2.4538  -2.1305  -2.0735  -1.8106  -1.7209  -1.2493
    -1.2323  -0.8482  -0.6093  -0.5699  -0.5680  -0.5186  -0.4223  -0.2450
    -0.1538  -0.0675   0.0222   0.0645   0.1573   0.2130   0.2437   0.2727
     0.2804   0.4489   0.5956   0.5997   0.6004   0.6248   0.8147   0.8249
     1.0951   1.1061   1.1168   1.3986   2.0742   2.2934   2.3400   2.3574
     2.4509   2.8662   2.9309   3.1308   3.3108   3.3111   3.4733   3.5410
     3.6304   3.6831   3.7306   3.7406   3.7895   3.8713   3.9172   3.9420
     4.2456   4.2795   4.4336   4.5168   4.5522   4.7052   4.8313   4.9037
[...]
     atom    9 type  2   force =    -0.27933979   -0.00415306   11.35336421
     atom   10 type  1   force =    -0.00223848    0.00355072  113.85852862
     atom   11 type  1   force =     0.00656364   -0.00869479   66.39338910
     atom   12 type  1   force =     0.00614469    0.01113494   66.39242445
     atom   13 type  1   force =     0.00244217   -0.00050073  113.85789924
     atom   14 type  1   force =    -0.01131507   -0.00250016   66.39452127
     atom   15 type  1   force =    -0.00180134   -0.00353614  113.85747098
     atom   16 type  2   force =    -0.00114154    0.00003044   45.74963706
     atom   17 type  2   force =    -0.00049331   -0.00122539   45.74980243
     atom   18 type  2   force =    -0.00256947    0.00106331   45.74953285
     atom   19 type  3   force =    -0.00112321   -0.00009655 -115.17835595
     atom   20 type  4   force =     0.56163489   -0.36598470  -80.30606369
     atom   21 type  4   force =     0.40076741   -0.61542497  -17.86107893
     atom   22 type  3   force =    -0.04624154   -4.13813169 -113.97151075
     atom   23 type  4   force =    -0.59721448   -0.30294475  -80.30574143
     atom   24 type  4   force =    -0.73214354   -0.03808548  -17.86649489
     atom   25 type  3   force =     3.60823248    2.02663609 -113.97379774
     atom   26 type  4   force =     0.03504253    0.66882572  -80.30688083
     atom   27 type  4   force =     0.33122461    0.65242774  -17.86189542
     atom   28 type  3   force =    -3.56095432    2.11176286 -113.97902439
     atom   29 type  4   force =     0.00069906    0.00024983  -83.23484854
     atom   30 type  4   force =    -0.00028270    0.00085944  -14.06184247
     The local contribution  to forces
     atom    1 type  1   force =     0.32878245   -0.58307502    1.14872850
     atom    2 type  1   force =    -0.00090899   -0.00119262  -46.50192609
     atom    3 type  1   force =     0.00108080    0.00077067  -47.18891081
     atom    4 type  1   force =    -0.66953334    0.00667552    1.15629420
     atom    5 type  1   force =    -0.00134074   -0.00039718  -46.48884286
     atom    6 type  1   force =     0.33961709    0.57602839    1.15099399
     atom    7 type  2   force =    -0.13934322    0.23679143  -11.32312385
     atom    8 type  2   force =    -0.13642221   -0.23912695  -11.32813112
     atom    9 type  2   force =     0.27334239    0.00300354  -11.32883298
     atom   10 type  1   force =     0.00221130   -0.00354088 -113.85863517
     atom   11 type  1   force =    -0.00670885    0.00879553  -66.42052103
     atom   12 type  1   force =    -0.00632084   -0.01124057  -66.41954786
     atom   13 type  1   force =    -0.00245909    0.00048488 -113.85801922
     atom   14 type  1   force =     0.01132512    0.00245250  -66.42162461
     atom   15 type  1   force =     0.00177460    0.00351956 -113.85759952
     atom   16 type  2   force =     0.00121140   -0.00002689  -45.75253401
     atom   17 type  2   force =     0.00052301    0.00126580  -45.75310836
     atom   18 type  2   force =     0.00269936   -0.00109790  -45.75247148
     atom   19 type  3   force =     0.00106288    0.00014467  115.20255562
     atom   20 type  4   force =    -0.55375418    0.36140934   80.02460213
     atom   21 type  4   force =    -0.38601619    0.61158222   18.03629378
     atom   22 type  3   force =     0.05370142    4.09081217  114.02364994
     atom   23 type  4   force =     0.58931552    0.29840199   80.02424479
     atom   24 type  4   force =     0.72141248    0.02727145   18.04181225
     atom   25 type  3   force =    -3.57098973   -1.99656231  114.02602581
     atom   26 type  4   force =    -0.03502319   -0.65970618   80.02543110
     atom   27 type  4   force =    -0.33526143   -0.63771977   18.03712010
     atom   28 type  3   force =     3.51624165   -2.09458215  114.03112048
     atom   29 type  4   force =    -0.00069145   -0.00025610   82.99024532
     atom   30 type  4   force =     0.00029667   -0.00091085   14.16095998
     The core correction contribution to forces
     atom    1 type  1   force =    -0.00004490    0.00006601   -0.00211335
     atom    2 type  1   force =     0.00000010    0.00000106    0.00314166
     atom    3 type  1   force =    -0.00000162   -0.00000011    0.00309455
     atom    4 type  1   force =     0.00008028    0.00000646   -0.00211268
     atom    5 type  1   force =    -0.00000086   -0.00000049    0.00311894
     atom    6 type  1   force =    -0.00003518   -0.00007217   -0.00211343
     atom    7 type  2   force =     0.00002896   -0.00001179    0.00045841
     atom    8 type  2   force =    -0.00000663    0.00003305    0.00045849
     atom    9 type  2   force =    -0.00002923   -0.00002011    0.00045739
     atom   10 type  1   force =    -0.00000405    0.00000654    0.00367444
     atom   11 type  1   force =     0.00000228   -0.00000256   -0.00318447
     atom   12 type  1   force =     0.00000115    0.00000384   -0.00318460
     atom   13 type  1   force =     0.00000674    0.00000011    0.00367422
     atom   14 type  1   force =    -0.00000395   -0.00000177   -0.00318416
     atom   15 type  1   force =    -0.00000305   -0.00000695    0.00367418
     atom   16 type  2   force =     0.00000239   -0.00000001    0.00014741
     atom   17 type  2   force =     0.00000103    0.00000177    0.00015032
     atom   18 type  2   force =     0.00000491   -0.00000166    0.00014625
     atom   19 type  3   force =    -0.00000150    0.00000114    0.00201320
     atom   20 type  4   force =    -0.00010337    0.00014422   -0.00291305
     atom   21 type  4   force =     0.00031523    0.00035586    0.00161031
     atom   22 type  3   force =     0.00026072   -0.00207201    0.00315905
     atom   23 type  4   force =     0.00017623    0.00001676   -0.00291397
     atom   24 type  4   force =     0.00014852   -0.00044959    0.00161295
     atom   25 type  3   force =     0.00166423    0.00126119    0.00316210
     atom   26 type  4   force =    -0.00007229   -0.00016144   -0.00291423
     atom   27 type  4   force =    -0.00046400    0.00009674    0.00160806
     atom   28 type  3   force =    -0.00192560    0.00080944    0.00315643
     atom   29 type  4   force =    -0.00000100   -0.00000100   -0.00108144
     atom   30 type  4   force =     0.00000039   -0.00000192   -0.00047727
     The Hubbard contrib.    to forces
     atom    1 type  1   force =     0.00000000    0.00000000    0.00000000
     atom    2 type  1   force =     0.00000000    0.00000000    0.00000000
     atom    3 type  1   force =     0.00000000    0.00000000    0.00000000
     atom    4 type  1   force =     0.00000000    0.00000000    0.00000000
     atom    5 type  1   force =     0.00000000    0.00000000    0.00000000
     atom    6 type  1   force =     0.00000000    0.00000000    0.00000000
     atom    7 type  2   force =     0.00000000    0.00000000    0.00000000
     atom    8 type  2   force =     0.00000000    0.00000000    0.00000000
     atom    9 type  2   force =     0.00000000    0.00000000    0.00000000
     atom   10 type  1   force =     0.00000000    0.00000000    0.00000000
     atom   11 type  1   force =     0.00000000    0.00000000    0.00000000
     atom   12 type  1   force =     0.00000000    0.00000000    0.00000000
     atom   13 type  1   force =     0.00000000    0.00000000    0.00000000
     atom   14 type  1   force =     0.00000000    0.00000000    0.00000000
     atom   15 type  1   force =     0.00000000    0.00000000    0.00000000
     atom   16 type  2   force =     0.00000000    0.00000000    0.00000000
     atom   17 type  2   force =     0.00000000    0.00000000    0.00000000
     atom   18 type  2   force =     0.00000000    0.00000000    0.00000000
     atom   19 type  3   force =     0.00000000    0.00000000    0.00000000
     atom   20 type  4   force =     0.00000000    0.00000000    0.00000000
     atom   21 type  4   force =     0.00000000    0.00000000    0.00000000
     atom   22 type  3   force =     0.00000000    0.00000000    0.00000000
     atom   23 type  4   force =     0.00000000    0.00000000    0.00000000
     atom   24 type  4   force =     0.00000000    0.00000000    0.00000000
     atom   25 type  3   force =     0.00000000    0.00000000    0.00000000
     atom   26 type  4   force =     0.00000000    0.00000000    0.00000000
     atom   27 type  4   force =     0.00000000    0.00000000    0.00000000
     atom   28 type  3   force =     0.00000000    0.00000000    0.00000000
     atom   29 type  4   force =     0.00000000    0.00000000    0.00000000
     atom   30 type  4   force =     0.00000000    0.00000000    0.00000000
     The SCF correction term to forces
     atom    1 type  1   force =    -0.00000176    0.00000062    0.00001016
     atom    2 type  1   force =     0.00000058   -0.00000058   -0.00002731
     atom    3 type  1   force =    -0.00000102   -0.00000053   -0.00002757
     atom    4 type  1   force =     0.00000174    0.00000037    0.00000951
     atom    5 type  1   force =     0.00000058    0.00000128   -0.00002656
     atom    6 type  1   force =    -0.00000014   -0.00000104    0.00000866
     atom    7 type  2   force =    -0.00000022   -0.00000044   -0.00000393
     atom    8 type  2   force =     0.00000054    0.00000026   -0.00000394
     atom    9 type  2   force =    -0.00000030    0.00000011   -0.00000385
     atom   10 type  1   force =     0.00000001   -0.00000021   -0.00010759
     atom   11 type  1   force =    -0.00000006   -0.00000007   -0.00013183
     atom   12 type  1   force =     0.00000027    0.00000030   -0.00013178
     atom   13 type  1   force =    -0.00000004   -0.00000004   -0.00010764
     atom   14 type  1   force =    -0.00000038   -0.00000028   -0.00013213
     atom   15 type  1   force =     0.00000013    0.00000014   -0.00010770
     atom   16 type  2   force =     0.00000005    0.00000011   -0.00006495
     atom   17 type  2   force =    -0.00000001   -0.00000006   -0.00006482
     atom   18 type  2   force =     0.00000003    0.00000000   -0.00006498
     atom   19 type  3   force =     0.00000148   -0.00000519   -0.00001450
     atom   20 type  4   force =     0.00000363    0.00000028    0.00001760
     atom   21 type  4   force =     0.00000389    0.00000045   -0.00000424
     atom   22 type  3   force =    -0.00000066   -0.00000935   -0.00001489
     atom   23 type  4   force =    -0.00000383    0.00000353    0.00001519
     atom   24 type  4   force =    -0.00000394    0.00000346   -0.00000204
     atom   25 type  3   force =     0.00000270    0.00000506   -0.00001484
     atom   26 type  4   force =    -0.00000314    0.00000052    0.00001295
     atom   27 type  4   force =    -0.00000314    0.00000042    0.00000065
     atom   28 type  3   force =     0.00000007    0.00000393   -0.00001500
     atom   29 type  4   force =     0.00000284   -0.00000387    0.00001733
     atom   30 type  4   force =     0.00000265   -0.00000366   -0.00000030

     XDM contribution to forces:
     atom    1 type  1   force =    -0.00020793    0.00102189   -0.00298861
     atom    2 type  1   force =     0.00001233    0.00000078    0.00394996
     atom    3 type  1   force =     0.00000874    0.00000201    0.00411101
     atom    4 type  1   force =     0.00097890   -0.00033605   -0.00298332
     atom    5 type  1   force =     0.00001589    0.00000271    0.00393653
     atom    6 type  1   force =    -0.00077315   -0.00068631   -0.00298648
     atom    7 type  2   force =    -0.00002113    0.00003504   -0.00034120
     atom    8 type  2   force =    -0.00001964   -0.00003579   -0.00034067
     atom    9 type  2   force =     0.00004069    0.00000082   -0.00034063
     atom   10 type  1   force =     0.00000146   -0.00000067   -0.01413836
     atom   11 type  1   force =     0.00000651   -0.00003218   -0.00600799
     atom   12 type  1   force =     0.00000383    0.00003144   -0.00600905
     atom   13 type  1   force =     0.00000063    0.00000000   -0.01413898
     atom   14 type  1   force =    -0.00004992   -0.00000527   -0.00601087
     atom   15 type  1   force =     0.00000232    0.00000130   -0.01413940
     atom   16 type  2   force =     0.00000011   -0.00000003   -0.00073551
     atom   17 type  2   force =     0.00000009    0.00000004   -0.00074267
     atom   18 type  2   force =     0.00000018   -0.00000003   -0.00073565
     atom   19 type  3   force =    -0.00000067    0.00000094    0.01033016
     atom   20 type  4   force =     0.00005964    0.00000727    0.00444851
     atom   21 type  4   force =     0.00001880   -0.00014642    0.00093344
     atom   22 type  3   force =     0.00035544   -0.00086026    0.00973795
     atom   23 type  4   force =    -0.00002349   -0.00005560    0.00444836
     atom   24 type  4   force =    -0.00013652    0.00005841    0.00093743
     atom   25 type  3   force =     0.00056689    0.00073772    0.00973216
     atom   26 type  4   force =    -0.00003624    0.00004819    0.00444872
     atom   27 type  4   force =     0.00011700    0.00008860    0.00093249
     atom   28 type  3   force =    -0.00092127    0.00012198    0.00973878
     atom   29 type  4   force =     0.00000007   -0.00000004    0.00461103
     atom   30 type  4   force =     0.00000046   -0.00000050    0.00034283

     Total force =     0.000230     Total SCF correction =     0.000323

     Total XDM Force =     0.035569
     SCF correction compared to forces is large: reduce conv_thr to get better values


     Computing stress (Cartesian axis) and pressure


     negative rho (up, down):  9.619E-05 0.000E+00
          total   stress  (Ry/bohr**3)                   (kbar)     P=  -17.21
  -0.00017469  -0.00000002  -0.00000031        -25.70     -0.00     -0.05
  -0.00000002  -0.00017497  -0.00000009         -0.00    -25.74     -0.01
  -0.00000031  -0.00000009  -0.00000122         -0.05     -0.01     -0.18

     kinetic stress (kbar)   8155.97      0.01     -0.04
                                0.01   8156.10     -0.01
                               -0.04     -0.01   8138.24

     local   stress (kbar)-382520.21      0.01      1.40
                                0.01-382519.63      0.22
                                1.40      0.22 376995.38

     nonloc. stress (kbar)   2425.28     -0.00      0.01
                               -0.00   2425.26      0.00
                                0.01      0.00   2434.77

     hartree stress (kbar) 190267.31     -0.00     -0.48
                               -0.00 190267.09     -0.07
                               -0.48     -0.07-186566.58

     exc-cor stress (kbar)   -768.13      0.00     -0.00
                                0.00   -768.12     -0.00
                               -0.00     -0.00   -769.58

     corecor stress (kbar)   -854.57     -0.00      0.00
                               -0.00   -854.57      0.00
                                0.00      0.00   -854.63

     ewald   stress (kbar) 183298.24     -0.03     -0.94
                               -0.03 183297.73     -0.16
                               -0.94     -0.16-199354.25

     hubbard stress (kbar)      0.00      0.00      0.00
                                0.00      0.00      0.00
                                0.00      0.00      0.00

     london  stress (kbar)      0.00      0.00      0.00
                                0.00      0.00      0.00
                                0.00      0.00      0.00

     DFT-D3  stress (kbar)      0.00      0.00      0.00
                                0.00      0.00      0.00
                                0.00      0.00      0.00

     XDM     stress (kbar)    -29.58     -0.00     -0.00
                               -0.00    -29.59     -0.00
                               -0.00     -0.00    -23.53

     dft-nl  stress (kbar)      0.00      0.00      0.00
                                0.00      0.00      0.00
                                0.00      0.00      0.00

     TS-vdW  stress (kbar)      0.00      0.00      0.00
                                0.00      0.00      0.00
                                0.00      0.00      0.00



     Writing output data file GS.save/

     init_run     :     50.75s CPU     53.12s WALL (       1 calls)
     electrons    :   6031.83s CPU   6497.69s WALL (       1 calls)
     forces       :     19.98s CPU     20.46s WALL (       1 calls)
     stress       :    156.74s CPU    157.86s WALL (       1 calls)

     Called by init_run:
     wfcinit      :     34.52s CPU     36.42s WALL (       1 calls)
     wfcinit:atom :      0.31s CPU      0.31s WALL (      25 calls)
     wfcinit:wfcr :     31.72s CPU     33.56s WALL (      25 calls)
     potinit      :      5.66s CPU      5.88s WALL (       1 calls)
     hinit0       :      8.29s CPU      8.33s WALL (       1 calls)
     init_xdm     :      0.00s CPU      0.02s WALL (       1 calls)

     Called by electrons:
     c_bands      :   3355.79s CPU   3695.59s WALL (      34 calls)
     sum_band     :   2545.55s CPU   2663.29s WALL (      34 calls)
     v_of_rho     :     25.56s CPU     25.87s WALL (      35 calls)
     v_h          :      0.67s CPU      0.70s WALL (      35 calls)
     v_xc         :     26.31s CPU     26.61s WALL (      37 calls)
     newd         :     29.68s CPU     35.73s WALL (      35 calls)
     PAW_pot      :     26.66s CPU     26.80s WALL (      35 calls)
     mix_rho      :      3.59s CPU      3.84s WALL (      34 calls)
     energy_xdm   :     46.13s CPU     46.29s WALL (       1 calls)
     exdm:environ :      0.04s CPU      0.05s WALL (       2 calls)
     exdm:paw_cha :      3.16s CPU      3.18s WALL (       1 calls)
     exdm:rho     :     19.45s CPU     19.50s WALL (       1 calls)

     Called by c_bands:
     init_us_2    :     28.65s CPU     28.84s WALL (    1775 calls)
     cegterg      :   3286.93s CPU   3464.49s WALL (     851 calls)

     Called by sum_band:
     sum_band:bec :      0.71s CPU      0.73s WALL (     850 calls)
     addusdens    :     36.01s CPU     42.62s WALL (      34 calls)

     Called by *egterg:
     h_psi        :   2387.02s CPU   2533.08s WALL (    5036 calls)
     s_psi        :    153.85s CPU    154.48s WALL (    5036 calls)
     g_psi        :      7.12s CPU      7.18s WALL (    4160 calls)
     cdiaghg      :    204.71s CPU    212.29s WALL (    5011 calls)
     cegterg:over :    199.73s CPU    200.68s WALL (    4160 calls)
     cegterg:upda :    206.73s CPU    212.25s WALL (    4160 calls)
     cegterg:last :     89.07s CPU     90.01s WALL (     926 calls)
     cdiaghg:chol :     14.97s CPU     15.46s WALL (    5011 calls)
     cdiaghg:inve :     13.80s CPU     13.88s WALL (    5011 calls)
     cdiaghg:para :     18.52s CPU     21.72s WALL (   10022 calls)

     Called by h_psi:
     h_psi:pot    :   2374.31s CPU   2513.33s WALL (    5036 calls)
     h_psi:calbec :    158.56s CPU    162.49s WALL (    5036 calls)
     vloc_psi     :   2061.39s CPU   2195.79s WALL (    5036 calls)
     add_vuspsi   :    154.30s CPU    155.02s WALL (    5036 calls)

     General routines
     calbec       :    224.77s CPU    230.44s WALL (    6011 calls)
     fft          :     11.52s CPU     11.95s WALL (     588 calls)
     ffts         :      0.44s CPU      0.48s WALL (     103 calls)
     fftw         :   3413.69s CPU   3640.33s WALL ( 1478664 calls)
     interpolate  :      0.73s CPU      0.77s WALL (      35 calls)

     Parallel routines
     fft_scatt_xy :    453.93s CPU    459.55s WALL ( 1479355 calls)
     fft_scatt_yz :    954.76s CPU   1117.26s WALL ( 1479355 calls)

     PAW routines
     PAW_pot      :     26.66s CPU     26.80s WALL (      35 calls)

     PWSCF        :      1h44m CPU      1h54m WALL


   This run was terminated on:  15: 2:42  25Aug2020            

=------------------------------------------------------------------------------=
   JOB DONE.
=------------------------------------------------------------------------------=
